(written by ASE)

2399 atoms
2 atom types

0.0      4.3491795778054509  xlo xhi
0.0      753.30000000000007  ylo yhi
0.0                     200  zlo zhi

Masses

     1                  10.811 # B
     2      14.006699999999999 # N

Atoms # full

     1   1   1  0.42    -0.75820061221801816    -0.12663676836946422      50.055595096351382
     2   1   2 -0.42    -0.02585192440317129      1.1409781940182961      50.038149586654846
     3   1   1  0.42      1.4188666132035463       1.126831217982218      50.039142927520665
     4   1   2 -0.42      2.1268178534716751    -0.16058534850174633      50.033976206643672
     5   1   1  0.42    -0.74374582578029358      2.4132974750589575      50.042246536452218
     6   1   2 -0.42   -0.020078629186211162      3.6836858700393029      50.035451041324521
     7   1   1  0.42      1.4357231316696559      3.6813294010963995      50.039139660737476
     8   1   2 -0.42       2.147351271421813      2.4030126582597924      50.031467833340649
     9   1   1  0.42    -0.73406145850333804      4.9554223989322344       50.04125437568382
    10   1   2 -0.42   -0.010561040022826094      6.2226270496253493      50.034374955329255
    11   1   1  0.42      1.4438842725040539      6.2237276176140153      50.041163100920919
    12   1   2 -0.42      2.1589394141551854      4.9519722414026681      50.034177195378135
    13   1   1  0.42     -0.7281430074662244      7.4911264640549939      50.040942802740531
    14   1   2 -0.42  -0.0067019405933057734      8.7578312820402235      50.034556652003495
    15   1   1  0.42      1.4469150385105825      8.7578501027431876      50.041020280449835
    16   1   2 -0.42      2.1664957553553963      7.4907239608639653      50.034592580301975
    17   1   1  0.42    -0.72792758904684529      10.022872515382264      50.041048102708764
    18   1   2 -0.42  -0.0061412431599021516      11.286219816759914      50.034560607269853
    19   1   1  0.42      1.4461705273653676      11.286327838209903      50.041061264355427
    20   1   2 -0.42      2.1682414088853368      10.022944284416319      50.034553021578141
    21   1   1  0.42    -0.72884681794247164      12.547477997463222      50.041067614093329
    22   1   2 -0.42  -0.0053044054846777336      13.806659133713481      50.034544331391196
    23   1   1  0.42      1.4453541970198942      13.806584205484221      50.041071462193244
    24   1   2 -0.42      2.1688820132834028      12.547503322885772      50.034550336337581
    25   1   1  0.42    -0.72951863222900248      15.064047483942344      50.041059956126112
    26   1   2 -0.42  -0.0048860462712932741      16.320326099177347       50.03451972463462
    27   1   1  0.42      1.4449565385289991      16.320313890361184      50.041049284322639
    28   1   2 -0.42      2.1695437694446773      15.063973948492027      50.034529728986385
    29   1   1  0.42    -0.72965999820535976      17.576069982329248      50.041027113604841
    30   1   2 -0.42  -0.0047621066939102057      18.831594352500691       50.03447859631229
    31   1   1  0.42      1.4449460875547229      18.831603480236723      50.041010585680553
    32   1   2 -0.42      2.1697809851697585       17.57605681867382      50.034497032132833
    33   1   1  0.42    -0.72961230617802575      20.087072900760781      50.040984298034616
    34   1   2 -0.42  -0.0046739647338742366      21.342498351250931      50.034431492925357
    35   1   1  0.42      1.4450267219124868      21.342515750826543      50.040964408604225
    36   1   2 -0.42      2.1698698735175825      20.087053069704638      50.034450458062139
    37   1   1  0.42    -0.72950450114607723      22.597961097922582      50.040937689945252
    38   1   2 -0.42  -0.0045467161637970689      23.853386296139792       50.03439278026206
    39   1   1  0.42      1.4451537358568531      23.853398498898343      50.040921766661995
    40   1   2 -0.42      2.1699765876154395      22.597937498668593      50.034407233909782
    41   1   1  0.42    -0.72936080017128968      25.108852762604727      50.040903750703656
    42   1   2 -0.42  -0.0043740444793699288      26.364256407911757      50.034365647771352
    43   1   1  0.42      1.4453280457584865      26.364294068685442      50.040897343282033
    44   1   2 -0.42      2.1701275277965668      25.108814542198655      50.034374044829811
    45   1   1  0.42    -0.72915496309111227      27.619734032452019       50.04088742520544
    46   1   2 -0.42  -0.0041453166471957436       28.87513580912729      50.034354930591505
    47   1   1  0.42        1.44555411764332      28.875179063441571      50.040886082591804
    48   1   2 -0.42      2.1703236758310509      27.619700215061393      50.034354750487651
    49   1   1  0.42    -0.72891538436938108      30.130621808701257      50.040879926719562
    50   1   2 -0.42  -0.0038907276498256491      31.386005680161407       50.03435279518277
    51   1   1  0.42      1.4458138421075344      31.386073777216509      50.040881798227673
    52   1   2 -0.42      2.1705683850961521      30.130571425538026      50.034350482574951
    53   1   1  0.42    -0.72862379643149722      32.641505794761869      50.040877942658938
    54   1   2 -0.42  -0.0035794678199172728      33.896887355288541      50.034347233121643
    55   1   1  0.42      1.4461227498853699      33.896949587601483      50.040879133924918
    56   1   2 -0.42      2.1708555333663706       32.64145610048503      50.034347463020154
    57   1   1  0.42    -0.72829825871636378      35.152394641958274      50.040870741516798
    58   1   2 -0.42  -0.0032335549307608495       36.40776249424826      50.034335545386185
    59   1   1  0.42        1.44646457135416       36.40784010133958      50.040865373013268
    60   1   2 -0.42      2.1711795815460726      35.152324110683104      50.034339148864227
    61   1   1  0.42    -0.72793687218289838      37.663277952335719      50.040849402243651
    62   1   2 -0.42  -0.0028552537613843027       38.91865004298905      50.034307490131781
    63   1   1  0.42       1.446848888384904      38.918706489454216      50.040837153758723
    64   1   2 -0.42      2.1715453061342158      37.663200355985097      50.034320342945662
    65   1   1  0.42    -0.72755584954216213      40.174160767854147      50.040813855772782
    66   1   2 -0.42  -0.0024704137571715124      41.429521520457172      50.034260999737135
    67   1   1  0.42      1.4472265376981561       41.42959773124182      50.040791898225208
    68   1   2 -0.42      2.1719226236236029       40.17407739134709      50.034282571621958
    69   1   1  0.42    -0.72716057250142774      42.685031313481396      50.040759166729842
    70   1   2 -0.42  -0.0020605881198641428      43.940401003912342      50.034201922112132
    71   1   1  0.42      1.4476465406865293      43.940473266529388      50.040729861233842
    72   1   2 -0.42      2.1723227144397486      42.684960869839323      50.034230156273331
    73   1   1  0.42    -0.72675573639550772       45.19591066244292      50.040692849276184
    74   1   2 -0.42  -0.0016723591840541474      46.451270605219634      50.034131958760796
    75   1   1  0.42      1.4480309285054025      46.451356686526658      50.040661892899386
    76   1   2 -0.42      2.1727261152855681      45.195842859870126      50.034164460476759
    77   1   1  0.42    -0.72636668614525035      47.706782413363761      50.040622543178856
    78   1   2 -0.42  -0.0012922807885115588      48.962160838812082      50.034060994002402
    79   1   1  0.42      1.4484129881677128      48.962226969341714       50.04058892349569
    80   1   2 -0.42      2.1731113108186162      47.706723470218918      50.034092246823683
    81   1   1  0.42    -0.72599580108348283      50.217667633043312      50.040549664883535
    82   1   2 -0.42 -0.00094650593625540951      51.473034502986089      50.033992479914957
    83   1   1  0.42      1.4487572814033622      51.473105153300345      50.040518716484563
    84   1   2 -0.42       2.173482946366379      50.217596385673012      50.034023512069439
    85   1   1  0.42    -0.72566512763864011      52.728542858521877      50.040483664763947
    86   1   2 -0.42 -0.00063469906530568324      53.983936530108082      50.033926822097754
    87   1   1  0.42      1.4490698832034661      53.983964872277021      50.040455932380858
    88   1   2 -0.42      2.1738077769661066      52.728475779707651       50.03395535445658
    89   1   1  0.42    -0.72539539275781195      55.239415171501683      50.040421761429229
    90   1   2 -0.42 -0.00040674021720022428      56.494807886551499      50.033869810658807
    91   1   1  0.42      1.4493006350866728      56.494849023528637      50.040395112690028
    92   1   2 -0.42      2.1740848961530661      55.239360978565585      50.033894013720634
    93   1   1  0.42    -0.72520063092575826      57.750282707592817      50.040363575996253
    94   1   2 -0.42  -0.0002304658766369803       59.00569936327873      50.033814730869494
    95   1   1  0.42      1.4494744489619236      59.005719276130968      50.040340846939621
    96   1   2 -0.42      2.1742747784384648       57.75025514295551       50.03383927844154
    97   1   1  0.42    -0.72507534038885679      60.261146464715146      50.040312469609013
    98   1   2 -0.42 -0.00015646458965581065      61.516580480620718      50.033762546726614
    99   1   1  0.42      1.4495481775736521      61.516600996549528      50.040290133672549
   100   1   2 -0.42       2.174404195754724      60.261149444541239      50.033784425638302
   101   1   1  0.42    -0.72504455830299552      62.772027862511649      50.040260934566469
   102   1   2 -0.42 -0.00017958051814642785      64.027480987685109      50.033715580611513
   103   1   1  0.42      1.4495240089722052       64.02746715213074      50.040238758806623
   104   1   2 -0.42      2.1744348341885864      62.772038456724424      50.033735502878095
   105   1   1  0.42    -0.72510894873387355      65.282908018685248      50.040212317482883
   106   1   2 -0.42 -0.00032785270040949598      66.538368121656234      50.033667785779947
   107   1   1  0.42      1.4493822942481491      66.538350109218044      50.040193680098085
   108   1   2 -0.42      2.1743648077658482      65.282922641067188       50.03368849311147
   109   1   1  0.42     -0.7253066634259433      67.793789950010137      50.040168898338941
   110   1   2 -0.42 -0.00053842261719619919      69.049274809573944      50.033624841653904
   111   1   1  0.42      1.4491662755747388      69.049215027765698      50.040149819691095
   112   1   2 -0.42       2.174169865490343      67.793811720746746      50.033641914522434
   113   1   1  0.42     -0.7255810775677326      70.304667922324342      50.040124780281822
   114   1   2 -0.42 -0.00087348107198851851      71.560169538553026      50.033586314779718
   115   1   1  0.42      1.4488331566931123      71.560098283290927      50.040108047548649
   116   1   2 -0.42      2.1738968819739743      70.304710058590288       50.03360215630687
   117   1   1  0.42    -0.72597132316438862      72.815535701840176      50.040086815010675
   118   1   2 -0.42  -0.0013016336192953038      74.071073308441001      50.033547978423563
   119   1   1  0.42      1.4484081161954681      74.070970064352608      50.040073188303161
   120   1   2 -0.42      2.1735021890974697      72.815618719200032      50.033563812178464
   121   1   1  0.42    -0.72641844662384447      75.326405209620887      50.040052965107385
   122   1   2 -0.42   -0.001790683866038789      76.581954484234132      50.033516903466015
   123   1   1  0.42      1.4479129707729337      76.581870756328456      50.040039404244688
   124   1   2 -0.42      2.1730566398472724      75.326527640952207      50.033528097751123
   125   1   1  0.42    -0.72693707411402519      77.837297603280859      50.040020706802103
   126   1   2 -0.42  -0.0023174992424425038      79.092851947777376      50.033489573792302
   127   1   1  0.42      1.4473837036193935      79.092755831933957      50.040010551530656
   128   1   2 -0.42      2.1725454188038995        77.8374171265623       50.03349986614348
   129   1   1  0.42    -0.72748681466861853       80.34820350004172      50.039996702995978
   130   1   2 -0.42  -0.0028938966022123893       81.60374427931815      50.033465747275571
   131   1   1  0.42      1.4468117366630453      81.603647295440041      50.039989800619686
   132   1   2 -0.42      2.1719925484652172      80.348295110378345      50.033473510841773
   133   1   1  0.42    -0.72806896166252666      82.859101863158671      50.039977357268064
   134   1   2 -0.42  -0.0034715625925823925       84.11465473770609      50.033451613025392
   135   1   1  0.42      1.4462345701287609      84.114522108571904       50.03997227637376
   136   1   2 -0.42       2.171407324347232       82.85918127662066      50.033454087697791
   137   1   1  0.42    -0.72866013603738411      85.369984042805115      50.039963606607294
   138   1   2 -0.42  -0.0040892205490407419      86.625538393979923      50.033442744232559
   139   1   1  0.42      1.4456144866460148      86.625424565890953      50.039964750936683
   140   1   2 -0.42      2.1708179284316249      85.370084717722904      50.033443535746812
   141   1   1  0.42    -0.72930365830279842       87.88086129954317      50.039961661710599
   142   1   2 -0.42  -0.0047384261538433899      89.136435855155995      50.033442396512363
   143   1   1  0.42      1.4449634188852423      89.136316272594669      50.039966523417576
   144   1   2 -0.42       2.170176930323954      87.880994278852199      50.033438196490145
   145   1   1  0.42    -0.72997326963225095      90.391750348527481      50.039966327303077
   146   1   2 -0.42  -0.0054464115967504884      91.647323238316432      50.033454093122245
   147   1   1  0.42      1.4442544143309595       91.64721825225169      50.039974753255734
   148   1   2 -0.42      2.1695082136941886      90.391895934969838      50.033443737567836
   149   1   1  0.42    -0.73072028397983901      92.902650605755298      50.039980377382186
   150   1   2 -0.42  -0.0062417119872139612      94.158237551995882      50.033471501040815
   151   1   1  0.42      1.4434583150113334      94.158091109229872       50.03999473526062
   152   1   2 -0.42      2.1687623010965456      92.902783550053456      50.033458704633041
   153   1   1  0.42    -0.73154934186648379      95.413539480956558      50.040005184509987
   154   1   2 -0.42  -0.0070913091386957542      96.669149189795775       50.03349883139402
   155   1   1  0.42      1.4426081768703731      96.668967093438042      50.040022692885891
   156   1   2 -0.42      2.1679341810016859      95.413681893325418      50.033480540639488
   157   1   1  0.42    -0.73243751262801748      97.924416669121243      50.040035862332864
   158   1   2 -0.42  -0.0080128317206965977      99.180052272792494      50.033536492012708
   159   1   1  0.42      1.4416857275001373      99.179846025996596      50.040058301901588
   160   1   2 -0.42      2.1670465362826836      97.924590449698854      50.033513444107101
   161   1   1  0.42    -0.73338116079809246      100.43530631053126       50.04007760652938
   162   1   2 -0.42  -0.0089392826586526739      101.69090197203255      50.033581213903346
   163   1   1  0.42      1.4407570579178233      101.69077054429043      50.040106038218681
   164   1   2 -0.42      2.1661042699445043      100.43547855971282      50.033554862230901
   165   1   1  0.42    -0.73427487023529814      102.94619851140277      50.040130269153984
   166   1   2 -0.42  -0.0097885302110284483      104.20180302126496      50.033638017701307
   167   1   1  0.42      1.4399057378030655      104.20164299348406       50.04016276728008
   168   1   2 -0.42      2.1652132227465049       102.9463597045594      50.033604814658752
   169   1   1  0.42    -0.73506701130341423      105.45707679054932      50.040191914397326
   170   1   2 -0.42   -0.010564682726076058      106.71268067165197      50.033706633698529
   171   1   1  0.42      1.4391287808201412      106.71253728054197      50.040230848954451
   172   1   2 -0.42      2.1644224751958849      105.45725422367468      50.033667693572646
   173   1   1  0.42    -0.73588587717947906      107.96798776081253      50.040268619495535
   174   1   2 -0.42   -0.011417138309184258      109.22357316301492      50.033788442185909
   175   1   1  0.42      1.4382747032102696      109.22341547409077       50.04031611739849
   176   1   2 -0.42      2.1636046037973347      107.96811408337798      50.033742351505431
   177   1   1  0.42    -0.73670722170706693      110.47887142467309      50.040360574546106
   178   1   2 -0.42   -0.012161457426971405       111.7344326653225       50.03388526470075
   179   1   1  0.42      1.4375292332089107      111.73432488716014      50.040413823872584
   180   1   2 -0.42      2.1627849183476338       110.4790009143239       50.03383209722535
   181   1   1  0.42    -0.73741974457692827      112.98977128857304       50.04046322141609
   182   1   2 -0.42   -0.012875226154087673       114.2453269010789       50.03399079612921
   183   1   1  0.42      1.4368148817705211      114.24519933238189      50.040520434407668
   184   1   2 -0.42       2.162073200641657      112.98986908556334      50.033934869009315
   185   1   1  0.42    -0.73816649046490468      115.50062284031399      50.040572153155757
   186   1   2 -0.42   -0.013720626279674556      116.75622752995803      50.034097501240595
   187   1   1  0.42      1.4359692105946278      116.75607369911968      50.040629997703945
   188   1   2 -0.42      2.1613269824852699      115.50078880574394      50.034040742580757
   189   1   1  0.42    -0.73913036818284861      118.01150468438846      50.040681988381216
   190   1   2 -0.42   -0.014751298920366829       119.2671503730427      50.034205871148011
   191   1   1  0.42      1.4349380096428392      119.26693094162479      50.040739989328152
   192   1   2 -0.42      2.1603634372241651      118.01168473324277      50.034148251142938
   193   1   1  0.42    -0.74017000940986033      120.52237221120126      50.040792875454962
   194   1   2 -0.42   -0.015817717129420022      121.77803947386391      50.034316446405526
   195   1   1  0.42      1.4338712813654033      121.77782782111655      50.040852801002146
   196   1   2 -0.42      2.1593242710249676      120.52259958762176      50.034257823131689
   197   1   1  0.42    -0.74134946226047549      123.03328223607551      50.040907521015633
   198   1   2 -0.42   -0.017159569693232315      124.28896153470471       50.03442932466875
   199   1   1  0.42      1.4325290820470364      124.28870572956131      50.040968259659337
   200   1   2 -0.42      2.1581452667064127      123.03348205424058       50.03436984346429
   201   1   1  0.42    -0.74285996735865412      125.54412472001624      50.041022217010358
   202   1   2 -0.42    -0.01882584226265048      126.79990755725535      50.034539714146199
   203   1   1  0.42      1.4308622684813124      126.79957047260675      50.041080637749211
   204   1   2 -0.42      2.1566351501025118      125.54444580851553      50.034482186553475
   205   1   1  0.42    -0.74465636436650073      128.05502351974692       50.04113101974982
   206   1   2 -0.42   -0.020730802245085903      129.31082772587723        50.0346408003984
   207   1   1  0.42      1.4289567719018219      129.31047251502878      50.041184377576812
   208   1   2 -0.42        2.15483951275383      128.05536220108976      50.034588697179231
   209   1   1  0.42    -0.74667485026228975      130.56591098445205      50.041228398331072
   210   1   2 -0.42   -0.022901517969756775      131.82178675223841      50.034727290220928
   211   1   1  0.42      1.4267866287488322      131.82135737935607      50.041274080543509
   212   1   2 -0.42      2.1528210339769753      130.56630687705302      50.034683198247464
   213   1   1  0.42    -0.74904565453022476      133.07681100290097      50.041308881671668
   214   1   2 -0.42   -0.025494462342104306      134.33275715461505      50.034793497890448
   215   1   1  0.42      1.4241944255359009      134.33225600808777      50.041343555641006
   216   1   2 -0.42      2.1504495330672433      133.07726314015673      50.034760435102129
   217   1   1  0.42    -0.75186217501517416      135.58769655137544      50.041365361829989
   218   1   2 -0.42   -0.028547481702961678      136.84376069865144      50.034830986951931
   219   1   1  0.42      1.4211425198236138      136.84315109911901      50.041384868105474
   220   1   2 -0.42      2.1476322082481598      135.58826065402081      50.034813398655473
   221   1   1  0.42    -0.75517640344176562      138.09861624443846      50.041389291669113
   222   1   2 -0.42   -0.032157157067722868      139.35476648410256      50.034830542556271
   223   1   1  0.42      1.4175345216636912      139.35407804937424      50.041388892201134
   224   1   2 -0.42      2.1443166566336997      138.09925627233258      50.034833132234269
   225   1   1  0.42    -0.75909877966702977      140.60952670610891      50.041370711559111
   226   1   2 -0.42   -0.036414568683766448      141.86583191850062      50.034781477230375
   227   1   1  0.42      1.4132797406921724      141.86498243619093       50.04134483806515
   228   1   2 -0.42      2.1403922160486855      140.61029659033773      50.034809909825164
   229   1   1  0.42    -0.76371555370952127      143.12045337027038      50.041298221102579
   230   1   2 -0.42    -0.04143026467073798      144.37689826588968      50.034671134640888
   231   1   1  0.42      1.4082676238205818      144.37592917925437      50.041240639927764
   232   1   2 -0.42      2.1357724071498203      143.12136040952035      50.034731860404783
   233   1   1  0.42    -0.76914993666805942      145.63139750163742      50.041158808110318
   234   1   2 -0.42   -0.047316299181324392      146.88802204361255      50.034485288608529
   235   1   1  0.42       1.402386748856888      146.88686706808269      50.041062249067238
   236   1   2 -0.42      2.1303337764145631      145.63245336719325      50.034585697820347
   237   1   1  0.42    -0.77550699657915723      148.14234505741035      50.040937576086321
   238   1   2 -0.42   -0.054190507749446962      149.39916941368168      50.034207762661644
   239   1   1  0.42      1.3955195686532118      149.39783301491164       50.04079405059386
   240   1   2 -0.42      2.1239707400816203      148.14359260435208      50.034356147261263
   241   1   1  0.42    -0.78291642356728119      150.65332104299836      50.040618125857591
   242   1   2 -0.42   -0.062181037595180851      151.91036467069733      50.033820730941173
   243   1   1  0.42      1.3875390401721537      151.90881114494698      50.040418822587064
   244   1   2 -0.42      2.1165530017324894      150.65475874809709      50.034026233410955
   245   1   1  0.42    -0.79149755179393155      153.16430710771073      50.040182521853971
   246   1   2 -0.42    -0.07140808797279255      154.42160257123996      50.033304769223896
   247   1   1  0.42      1.3783250742604143      154.41981379549605      50.039918086537263
   248   1   2 -0.42      2.1079603096354922       153.1659791655778      50.033577245248587
   249   1   1  0.42    -0.80137689494910613      155.67532472068595      50.039611886144527
   250   1   2 -0.42   -0.081998325198379893      156.93288652125943      50.032639688988546
   251   1   1  0.42      1.3677514365429611      156.93084021250681      50.039272696817669
   252   1   2 -0.42       2.098066361820238      155.67723671377277      50.032989291704375
   253   1   1  0.42    -0.81267186243497058      158.18636123763318      50.038887039846671
   254   1   2 -0.42    -0.09406363849288453      159.44421753223983      50.031805347037142
   255   1   1  0.42      1.3557072210006682      159.44189264103991      50.038463827401117
   256   1   2 -0.42      2.0867526410018313      158.18854659248251      50.032242058352203
   257   1   1  0.42    -0.82549232830731512       160.6974301250599      50.037989937275775
   258   1   2 -0.42    -0.10770930797617871      161.95559533058093       50.03078332161526
   259   1   1  0.42      1.3420875236442975      161.95297538873297      50.037474631473735
   260   1   2 -0.42      2.0739087678600745      160.69989927816871      50.031316013866942
   261   1   1  0.42     -0.8399315821400688      163.20852780657441      50.036905448662608
   262   1   2 -0.42    -0.12301773921197226      164.46701945244521      50.029559121085079
   263   1   1  0.42      1.3268101408393227       164.4640907879477      50.036292368467031
   264   1   2 -0.42      2.0594410386480622      163.21130154563463      50.030194374244886
   265   1   1  0.42    -0.85606250898035496      165.71966127659545      50.035623971157619
   266   1   2 -0.42    -0.14004902268864036      166.97848712748521      50.028125220169841
   267   1   1  0.42      1.3098147787809042      166.97524193331714      50.034911356947042
   268   1   2 -0.42      2.0432766450505637      165.72274726147054      50.028865721731144
   269   1   1  0.42    -0.87392937815368021      168.23083109997089      50.034144592412744
   270   1   2 -0.42    -0.15883034302817825      169.48999447396488      50.026484526267701
   271   1   1  0.42       1.291073495789187      169.48643159151618      50.033336354508975
   272   1   2 -0.42      2.0253716916730364      168.23423563437058      50.027327282358073
   273   1   1  0.42    -0.89354314695663228      170.74204088247845      50.032478635581711
   274   1   2 -0.42     -0.1793520436873243      172.00153589233184      50.024654105911715
   275   1   1  0.42       1.270594526286813      171.99766167353485       50.03158610356563
   276   1   2 -0.42       2.005716369638749      170.74576073674913      50.025588590865588
   277   1   1  0.42    -0.91487474838526262      173.25329168539119      50.030653053177396
   278   1   2 -0.42    -0.20156161002861664      174.51310421325678      50.022668472494416
   279   1   1  0.42      1.2484285614133166      174.50893355849723      50.029696434988537
   280   1   2 -0.42      1.9843413597795001      173.25731656697008      50.023675081813593
   281   1   1  0.42    -0.93785090657420722      175.76458491648384      50.028713018799543
   282   1   2 -0.42    -0.22535995950485255       177.0246919789171      50.020581510195875
   283   1   1  0.42      1.2246724152479593      177.02024844200611      50.027722042690705
   284   1   2 -0.42       1.961321971286605      175.76889554624711      50.021630848996288
   285   1   1  0.42    -0.96235069238149917      178.27592173723801      50.026722555072759
   286   1   2 -0.42    -0.25059903575452841      179.53629155871803      50.018465715574955
   287   1   1  0.42      1.1994714255312333      179.53160738569699      50.025735620663191
   288   1   2 -0.42       1.936781634226576       178.2804901878053      50.019519400791744
   289   1   1  0.42    -0.98820427676206757      180.78730285338548      50.024761825702114
   290   1   2 -0.42    -0.27708185957649795         182.04789493003      50.016407407025923
   291   1   1  0.42      1.1730196696895479      182.04301055688202      50.023823002534364
   292   1   2 -0.42      1.9108930391459069      180.79209269606258      50.017421037397561
   293   1   1  0.42     -1.0151939321332779      183.29872777584177      50.022919924751072
   294   1   2 -0.42    -0.30456539653338849      184.55949365466549       50.01449718428622
   295   1   1  0.42      1.1455575556585398      184.55445675244547      50.022073570544855
   296   1   2 -0.42       1.883876738953451      183.30369481054615      50.015425697782575
   297   1   1  0.42     -1.0430579513509401      185.81019459452443      50.021283118176662
   298   1   2 -0.42    -0.33276645723649872      187.07107924553054      50.012816589450978
   299   1   1  0.42      1.1173663282634465      187.06594337765338      50.020566855540494
   300   1   2 -0.42      1.8559967768615822      185.81528800815795      50.013621252836501
   301   1   1  0.42     -1.0714977012468558      188.32170004646545      50.019920656417796
   302   1   2 -0.42    -0.36137050807184734      189.58264361541947      50.011424352680493
   303   1   1  0.42      1.0887595269254708      189.57746651500582      50.019358699286421
   304   1   2 -0.42      1.8275532911846253      188.32686395835393      50.012079392315215
   305   1   1  0.42     -1.1001875542158708      190.83323956304704       50.01887259719696
   306   1   2 -0.42    -0.39004298563959067      192.09417934472174      50.010347212109608
   307   1   1  0.42      1.0600718131863403       192.0890209438985      50.018472035051417
   308   1   2 -0.42      1.7988723812564396      190.83841488127047      50.010843523754581
   309   1   1  0.42     -1.1287871014850945      193.34480728572893      50.018144594592663
   310   1   2 -0.42    -0.41844236486635994      194.60567992151152      50.009579167143222
   311   1   1  0.42       1.031645925383736      194.60060020603569      50.017896272522322
   312   1   2 -0.42      1.7702938065574101      193.34993377343238      50.009923529747603
   313   1   1  0.42     -1.1569548112227663      195.85639623190997      50.017711858742395
   314   1   2 -0.42    -0.44623407696320766       197.1171401343461      50.009088988124205
   315   1   1  0.42      1.0038186319839042      197.11219691206088      50.017595179634469
   316   1   2 -0.42      1.7421573748298345      195.86141471674105      50.009299477152489
   317   1   1  0.42     -1.1843622403005847       198.3679987312735      50.017529817520575
   318   1   2 -0.42    -0.47310434275271368      199.62855653802407      50.008831739012379
   319   1   1  0.42     0.97690658267162134      199.62380321132378      50.017518945344662