(written by ASE)

4 atoms
2 atom types

0.0      2.5110000000000001  xlo xhi
0.0      2.1745897889027255  ylo yhi
0.0                      30  zlo zhi
     1.2554999999999998                       0                       0  xy xz yz

Masses

     1      10.809999997219188 # B
     2      14.006999996396779 # N

Atoms # full

     1   1   1  0.42 -9.1842171715221911e-14  2.0548714319407511e-14    0.056585667526286597
     2   1   2 -0.42      1.2555000000000776     0.72486326296754922    0.049106873784558587
     3   2   1  0.42      2.5110000000002071       1.449726525935092       3.273679906077672
     4   2   2 -0.42      3.7664999999997835      2.1745897889028094      3.2818275526114955
