(written by ASE)

2400 atoms
2 atom types

0.0      4.3491795778054509  xlo xhi
0.0      753.30000000000007  ylo yhi
0.0                     200  zlo zhi

Masses

     1                  10.811 # B
     2      14.006699999999999 # N

Atoms # full

     1   1   1  0.42     -2.1623207257646859 -3.3362080098520153e-09      49.889808009283449
     2   1   2 -0.42     -1.4374574627971104      1.2554999818583363      49.881585791838248
     3   1   1  0.42    0.012269063138039549      1.2555000062618169      49.889808007579255
     4   1   2 -0.42     0.73713232610561485 -4.9602791873937233e-10      49.881585790795327
     5   1   1  0.42     -2.1623205629054305      2.5109999989641705      49.889808014480828
     6   1   2 -0.42     -1.4374572999378556      3.7664999620864767      49.881585796327983
     7   1   1  0.42    0.012269225997294519      3.7665000095880474      49.889808009326288
     8   1   2 -0.42     0.73713248896486983      2.5109999808441206      49.881585793170181
     9   1   1  0.42     -2.1623202326201527      5.0220000017272763      49.889808023326083
    10   1   2 -0.42     -1.4374569696525774      6.2774999421266546      49.881585804392209
    11   1   1  0.42    0.012269556282572758      6.2775000125426592      49.889808014569709
    12   1   2 -0.42     0.73713281925014806      5.0219999616527549      49.881585799033218
    13   1   1  0.42     -2.1623197256472744      7.5330000045783896      49.889808036059058
    14   1   2 -0.42     -1.4374564626796995      8.7884999199820744      49.881585816258266
    15   1   1  0.42    0.012270063255450658      8.7885000162849138      49.889808023461931
    16   1   2 -0.42     0.73713332622302608      7.5329999409901633      49.881585808544159
    17   1   1  0.42     -2.1623190277707489       10.04400000727205      49.889808053042238
    18   1   2 -0.42     -1.4374557648031734      11.299499895772252      49.881585832256725
    19   1   1  0.42     0.01227076113197656      11.299500020331333      49.889808036247672
    20   1   2 -0.42     0.73713402409955187      10.043999919181331      49.881585821973133
    21   1   1  0.42       -2.16231811942149      12.555000010424251      49.889808074750881
    22   1   2 -0.42     -1.4374548564539145      13.810499868689952      49.881585852839223
    23   1   1  0.42    0.012271669481235481      13.810500024921804      49.889808053289755
    24   1   2 -0.42      0.7371349324488109      12.554999894731131      49.881585839696818
    25   1   1  0.42     -2.1623169751287397      15.066000013718105      49.889808101794571
    26   1   2 -0.42     -1.4374537121611641       16.32149983781505      49.881585878582975
    27   1   1  0.42    0.012272813773985815      16.321500030254093      49.889808075065616
    28   1   2 -0.42     0.73713607674156112      15.065999867501224      49.881585862212503
    29   1   1  0.42     -2.1623155628059956      17.577000017467949      49.889808134933588
    30   1   2 -0.42     -1.4374522998384207      18.832499802467652      49.881585910211932
    31   1   1  0.42    0.012274226096729457      18.832500036410273      49.889808102188042
    32   1   2 -0.42     0.73713748906430487      17.576999836502438      49.881585890153566
    33   1   1  0.42     -2.1623138428514994      20.088000021642781        49.8898081750987
    34   1   2 -0.42     -1.4374505798839241      21.343499761513666      49.881585948614941
    35   1   1  0.42    0.012275946051226061      21.343500043586698      49.889808135419912
    36   1   2 -0.42     0.73713920901880137      20.087999800904722       49.88158592430522
    37   1   1  0.42     -2.1623117670380823      22.599000026469323      49.889808223419173
    38   1   2 -0.42     -1.4374485040705067      23.854499713902921      49.881585994872367
    39   1   1  0.42    0.012278021864643218      23.854500051949479      49.889808175696196
    40   1   2 -0.42     0.73714128483221852      22.598999759749606      49.881585965627892
    41   1   1  0.42     -2.1623092771613006      25.110000031980722      49.889808281253629
    42   1   2 -0.42     -1.4374460141937251      26.365499658238811      49.881586050285442
    43   1   1  0.42    0.012280511741424862      26.365500061795355      49.889808224151153
    44   1   2 -0.42     0.73714377470900017      25.109999711787747      49.881586015284064
    45   1   1  0.42     -2.1623063034079952      27.621000038385439      49.889808350229174
    46   1   2 -0.42     -1.4374430404404199      28.876499592944484      49.881586116414496
    47   1   1  0.42     0.01228348549473024      28.876500073294284      49.889808282149616
    48   1   2 -0.42     0.73714674846230555       27.62099965578761      49.881586074671596
    49   1   1  0.42     -2.1623027623996101      30.132000045857868      49.889808432287573
    50   1   2 -0.42     -1.4374394994320345      31.387499516258199      49.881586195122431
    51   1   1  0.42    0.012287026503115417      31.387500086867394      49.889808351327041
    52   1   2 -0.42     0.73715028947069072      30.131999590062076      49.881586145462862
    53   1   1  0.42       -2.16229855485554      32.643000054524279      49.889808529739817
    54   1   2 -0.42     -1.4374352918879651      33.898499425896283      49.881586288627986
    55   1   1  0.42    0.012291234047185018      33.898500102792468      49.889808433635835
    56   1   2 -0.42     0.73715449701476043      32.642999512812125      49.881586229653784
    57   1   1  0.42     -2.1622935628111244      35.154000064741972      49.889808645333432
    58   1   2 -0.42     -1.4374302998435489      36.409499319426295      49.881586399570658
    59   1   1  0.42    0.012296226091601081      36.409500121538272      49.889808531401037
    60   1   2 -0.42     0.73715948905917639      35.153999421889544      49.881586329619232
    61   1   1  0.42      -2.162287646312528      37.665000076609033      49.889808782329794
    62   1   2 -0.42     -1.4374243833449529      38.920499193771775      49.881586531084203
    63   1   1  0.42    0.012302142590197462      38.920500143632808      49.889808647388953
    64   1   2 -0.42     0.73716540555777288      37.664999314601779       49.88158644818246
    65   1   1  0.42     -2.1622806394961418        40.1760000906039      49.889808944598499
    66   1   2 -0.42     -1.4374173765285665      41.431499045342598      49.881586686889683
    67   1   1  0.42    0.012309149406583675       41.43150016955196      49.889808784885474
    68   1   2 -0.42     0.73717241237415898      40.175999188092909      49.881586588696578
    69   1   1  0.42      -2.162272345943026      42.687000106933013      49.889809136729319
    70   1   2 -0.42     -1.4374090829754504      43.942498870075802      49.881586871401424
    71   1   1  0.42    0.012317442959699498      43.942500200144046      49.889808947793874
    72   1   2 -0.42      0.7371807059272748      42.686999038590699      49.881586755140503
    73   1   1  0.42     -2.1622625331787582      45.198000126063008      49.889809364164272
    74   1   2 -0.42     -1.4373992702111831      46.453498662754342      49.881587089857291
    75   1   1  0.42    0.012327255723967312      46.453500235985913      49.889809140748326
    76   1   2 -0.42     0.73719051869154262      45.197998861971882      49.881586952236887
    77   1   1  0.42     -2.1622509261653544      47.709000148476946      49.889809633358048
    78   1   2 -0.42     -1.4373876631977789      48.964498417737403      49.881587348472358
    79   1   1  0.42    0.012338862737371059      48.964500278177532      49.889809369251623
    80   1   2 -0.42     0.73720212570494636        47.7089986531983      49.881587185588359
    81   1   1  0.42     -2.1622371996039988      50.220000174577109      49.889809951965333
    82   1   2 -0.42     -1.4373739366364235       51.47549812779544      49.881587654622464
    83   1   1  0.42    0.012352589298726626      51.475500327628076       49.88980963984104
    84   1   2 -0.42     0.73721585226630193      50.219998406170767      49.881587461845783
    85   1   1  0.42     -2.1622209688344967      52.731000205087298      49.889810329070123
    86   1   2 -0.42     -1.4373577058669211      53.986497784747847      49.881588017066775
    87   1   1  0.42    0.012368820068228816      53.986500385574537      49.889809960283181
    88   1   2 -0.42     0.73723208303580412      52.730998114076506      49.881587788904426
    89   1   1  0.42     -2.1622017790786816      55.242000240500033      49.889810775455175
    90   1   2 -0.42     -1.4373385161111063      56.497497378728887       49.88158844621082
    91   1   1  0.42    0.012388009824043866      56.497500453385591      49.889810339816457
    92   1   2 -0.42     0.73725127279161917      55.241997768174564      49.881588176143765
    93   1   1  0.42     -2.1621790927295543       57.75300028158108       49.88981130392834
    94   1   2 -0.42     -1.4373158297619795       59.00849689784517        49.8815889544274
    95   1   1  0.42    0.012410696173170701      59.008500532553988      49.889810789433774
    96   1   2 -0.42       0.737273959140746      57.752997358819378       49.88158863471336
    97   1   1  0.42     -2.1621522743344799      60.264000329021073      49.889811929715947
    98   1   2 -0.42     -1.4372890113669046      61.519496328404308      49.881589556440765
    99   1   1  0.42      0.0124375145682456      61.519500624758599      49.889811322234252
   100   1   2 -0.42     0.73730077753582091      60.263996873833676      49.881589177878098
   101   1   1  0.42     -2.1621205728579866      62.775000383553476      49.889812670932265
   102   1   2 -0.42     -1.4372573098904116       64.03049565340612      49.881590269792959
   103   1   1  0.42    0.012469216044738829      64.030500731888296       49.88981195384347
   104   1   2 -0.42     0.73733247901231413       62.77499629921369      49.881589821435924
   105   1   1  0.42     -2.1620831007360857      65.286000445825792      49.889813549155704
   106   1   2 -0.42     -1.4372198377685101      66.541494853285641      49.881591115409805
   107   1   1  0.42    0.012506688166639801      66.541500855868577      49.889812702928836
   108   1   2 -0.42     0.73736995113421522      65.285995618069009      49.881590584225471
   109   1   1  0.42     -2.1620388091477198      67.797000516490556      49.889814590118796
   110   1   2 -0.42     -1.4371755461801443      69.052493904107621      49.881592118292716
   111   1   1  0.42    0.012550979755005631      69.052500998751285      49.889813591833203
   112   1   2 -0.42     0.73741424272258094      67.796994810004577      49.881591488741975
   113   1   1  0.42     -2.1619864588280238      70.308000595810384      49.889815824556869
   114   1   2 -0.42     -1.4371231958604485      71.563492777409408      49.881593308362696
   115   1   1  0.42    0.012603330074701713      71.563501162577339      49.889814647347457
   116   1   2 -0.42     0.73746659304227702      70.307993851111206      49.881592561893669
   117   1   1  0.42     -2.1619245856302416       72.81900068378755      49.889817289243723
   118   1   2 -0.42     -1.4370613226626661      74.074491439201694      49.881594721503397
   119   1   1  0.42    0.012665203272483883      74.074501349121562      49.889815901675661
   120   1   2 -0.42     0.73752846624005919      72.818992712122522      49.881593835930055
   121   1   1  0.42     -2.1618514599058933      75.330000779754073      49.889819028262693
   122   1   2 -0.42     -1.4369881969383178      76.585489848204659      49.881596400848807
   123   1   1  0.42    0.012738328996832138      76.585501559778891       49.88981739362837
   124   1   2 -0.42     0.73760159196440744      75.329991358290272      49.881595349587386
   125   1   1  0.42     -2.1617650386133964      77.841000882003343      49.889821094584377
   126   1   2 -0.42     -1.4369017756458209      79.096487955111556      49.881598398385982
   127   1   1  0.42    0.012824750289329057      79.096501795173253      49.889819170119488
   128   1   2 -0.42     0.73768801325690436      77.840989747525242      49.881597149514064
   129   1   1  0.42     -2.1616629088809005      80.352000987369564      49.889823552020744
   130   1   2 -0.42     -1.4367996459133257      81.607485699908452      49.881600776962102
   131   1   1  0.42    0.012926880021824516      81.607502054450663      49.889821288051742
   132   1   2 -0.42     0.73779014298939993      80.351987828967907      49.881599292050339
   133   1   1  0.42     -2.1615422215365863      82.863001090506202      49.889826477673516
   134   1   2 -0.42      -1.436678958569011      84.118483010143237      49.881603612812057
   135   1   1  0.42    0.013047567366139212      84.118502334751838      49.889823816705068
   136   1   2 -0.42     0.73791083033371452      82.862985541076341      49.881601845464445
   137   1   1  0.42     -2.1613996128760853      85.374001182734617      49.889829965011657
   138   1   2 -0.42     -1.4365363499085102      86.629479797446663      49.881606998761086
   139   1   1  0.42    0.013190176026640188       86.62950262990141      49.889826840785055
   140   1   2 -0.42     0.73805343899421549      85.373982808840566      49.881604892784267
   141   1   1  0.42     -2.1612311126594612      87.885001250839167      49.889834127768765
   142   1   2 -0.42     -1.4363678496918857      89.140475954164174      49.881611048312266
   143   1   1  0.42    0.013358676243264256      89.140502928874781      49.889830464337983
   144   1   2 -0.42     0.73822193921083956      87.884979540978122      49.881608535402009
   145   1   1  0.42     -2.1610320360170991      90.396001275059291      49.889839104907949
   146   1   2 -0.42     -1.4361687730495241      91.651471348401486      49.881615900895731
   147   1   1  0.42    0.013557752885626329      91.651503213629098      49.889834815811334
   148   1   2 -0.42     0.73842101585320163      90.395975625430225      49.881612897693934
   149   1   1  0.42     -2.1607968565943168      92.907001226312516      49.889845066990375
   150   1   2 -0.42     -1.4359335936267414      94.162465818108075      49.881621728649144
   151   1   1  0.42    0.013792932308408723      94.162503456188091      49.889840054634504
   152   1   2 -0.42     0.73865619527598403      92.906970924937482      49.881618132981011
   153   1   1  0.42     -2.1605190578794771      95.418001062920283      49.889852224392257
   154   1   2 -0.42      -1.435655794911902      96.673459163840377      49.881628745237435
   155   1   1  0.42    0.014070731023248406      96.673503614191546       49.88984637983274
   156   1   2 -0.42     0.73893399399082371      95.417965269952489      49.881624431267525
   157   1   1  0.42     -2.1601909592442943       97.92900072557606      49.889860837972577
   158   1   2 -0.42      -1.435327696276719       99.18445113885538      49.881637217383648
   159   1   1  0.42    0.014398829658431202      99.184503626081778      49.889854041353921
   160   1   2 -0.42     0.73926209262600651      97.928958451266553      49.881632029342157
   161   1   1  0.42     -2.1598035127868465      100.44000013110298      49.889871233005785
   162   1   2 -0.42     -1.4349402498192716      101.69544143807842      49.881647480027112
   163   1   1  0.42    0.014786276115878573      101.69550340307023      49.889863355049108
   164   1   2 -0.42     0.73964953908345399      100.43995020948552      49.881641224047222
   165   1   1  0.42     -2.1593460666236584      102.95099916457623      49.889883817463343
   166   1   2 -0.42     -1.4344828036560828      104.20642968298073      49.881659956349345
   167   1   1  0.42    0.015243722279067118      104.20650282056108      49.889874722563746
   168   1   2 -0.42     0.74010698524664242      102.95094022269453      49.881652389782012
   169   1   1  0.42     -2.1588060898531789       105.4619976682456       49.88989910612996
   170   1   2 -0.42     -1.4339428268856034      106.71741540440914      49.881675184329026
   171   1   1  0.42    0.015783699049546573      106.71750170575045      49.889888657850697
   172   1   2 -0.42     0.74064696201712188      105.46192809119678      49.881666001708076
   173   1   1  0.42     -2.1581688540495447      107.97299542947195      49.889917752529172
   174   1   2 -0.42     -1.4333055910819694      109.22839802121023      49.881693852090727
   175   1   1  0.42    0.016420934853180746         109.22849982318      49.889905822621245
   176   1   2 -0.42     0.74128419782075605      107.97291331867585      49.881682666617543
   177   1   1  0.42     -2.1574170659028833      110.48399216414855      49.889940591340981
   178   1   2 -0.42      -1.432553802935308      111.73937681574178      49.881716845067601
   179   1   1  0.42    0.017172722999842183      111.73949685746662      49.889927073845875
   180   1   2 -0.42     0.74203598596741749      110.48389529048308      49.881703164126229
   181   1   1  0.42     -2.1565304455880447       112.9949874994907      49.889968694894918
   182   1   2 -0.42     -1.4316671826204699      114.25035090629419      49.881745309057806
   183   1   1  0.42    0.018059343314680287      114.25049239321058      49.889953527504879
   184   1   2 -0.42     0.74292260628225559      112.99487324843562      49.881728501765075
   185   1   1  0.42     -2.1554852457412861      115.50598095383482      49.890003448535367
   186   1   2 -0.42     -1.4306219827737112      116.76131921825646      49.881780734593129
   187   1   1  0.42    0.019104543161438947      116.76148589477069      49.889986644189193
   188   1   2 -0.42     0.74396780612901425      115.50584626360477      49.881759988756528
   189   1   1  0.42     -2.1542537067257648      118.01697191814071      49.890046651239004
   190   1   2 -0.42     -1.4293904437581895      119.27228045635314      49.881825069830043
   191   1   1  0.42    0.020336082176960701      119.27247668677529      49.890028344008741
   192   1   2 -0.42     0.74519934514453601      118.01681320906573      49.881799334863913
   193   1   1  0.42      -2.152803445404857      120.52795964063313      49.890100649899232
   194   1   2 -0.42     -1.4279401824372817      121.78323308397712      49.881880871423618
   195   1   1  0.42    0.021786343497868454      121.78346394207048      49.890081160627801
   196   1   2 -0.42     0.74664960646544376      120.52777273631838      49.881848782749785
   197   1   1  0.42     -2.1510967772269463      123.03894322221525      49.890168518287389
   198   1   2 -0.42     -1.4262335142593712      124.29417531596052      49.881951505706361
   199   1   1  0.42    0.023493011675779222      124.29444668194712      49.890148447240705
   200   1   2 -0.42     0.74835627464335452      123.03872326156151      49.881911284918118
   201   1   1  0.42     -2.1490899754578008      125.54992162978672      49.890254294902704
   202   1   2 -0.42     -1.4242267124902259       126.8051051375116      49.882041415953609
   203   1   1  0.42    0.025499813444924246       126.8054238013444      49.890234650955698
   204   1   2 -0.42     0.75036307641249955      125.54966297134212      49.881990739552407
   205   1   1  0.42     -2.1467324773816121      128.06089374006646      49.890363297773391
   206   1   2 -0.42     -1.4218692144140366      129.31602036233994       49.88215647559241
   207   1   1  0.42     0.02785731152111337      129.31639412970054      49.890345676384733
   208   1   2 -0.42     0.75272057448868868      128.06058985882763      49.882092303500755
   209   1   1  0.42     -2.1439660558400151       130.5718584273142      49.890502538647596
   210   1   2 -0.42     -1.4191027928724398      131.82691874707982      49.882304451681819
   211   1   1  0.42    0.030623733062710379      131.82735654474271      49.890489364027346
   212   1   2 -0.42     0.75548699603028568      130.57150180756025      49.882222805130347
   213   1   1  0.42     -2.1407239862910927      133.08281470899061       49.89068126364905
   214   1   2 -0.42     -1.4158607233235176      134.33779817917295      49.882495607409297
   215   1   1  0.42    0.033865802611632745      134.33831015132947      49.890676113868999
   216   1   2 -0.42     0.75872906557920805      133.08239673615816      49.882391284545598
   217   1   1  0.42      -2.136930255389172      135.59376196058071      49.890911651602735
   218   1   2 -0.42     -1.4120669924215965      136.84865694561515      49.882743475760059
   219   1   1  0.42    0.037659533513553445       136.8492545333612      49.890919688480984
   220   1   2 -0.42     0.76252279648112875      135.59327281835905      49.882609693005236
   221   1   1  0.42     -2.1324988775893825       138.1047001979604      49.891209703687032
   222   1   2 -0.42      -1.407635614621807      139.35949408211752      49.883065837229928
   223   1   1  0.42    0.042090911313342971      139.36019007289951      49.891238231080216
   224   1   2 -0.42     0.76695417428091828       138.1041287799772      49.882893786012978
   225   1   1  0.42     -2.1273334118943934      140.61563040885952      49.891596356419761
   226   1   2 -0.42     -1.4024701489268179      141.87030977187521      49.883485929671409
   227   1   1  0.42    0.047256377008332073      141.87111830249236      49.891655529541978
   228   1   2 -0.42     0.77211963997590738      140.61496425559281      49.883264243236844
   229   1   1  0.42     -2.1213268014524651      143.12655488644481      49.892098840813532
   230   1   2 -0.42       -1.39646353848489      144.38110573621358      49.884033903744147
   231   1   1  0.42    0.053262987450260368      144.38204223179218      49.892202542584585
   232   1   2 -0.42     0.77812625041783567      143.12578016245317      49.883748039439503
   233   1   1  0.42     -2.1143616931402121      145.63747748358858      49.892752288239109
   234   1   2 -0.42     -1.3894984301726367      146.89188551916783      49.884748506721394
   235   1   1  0.42    0.060228095762513423       146.8929665475257      49.892919172613276
   236   1   2 -0.42     0.78509135873008873      145.63657901410326      49.884380068558883
   237   1   1  0.42     -2.1063114297409147      148.14840368772678      49.893601540834339
   238   1   2 -0.42     -1.3814481667733394      149.40265454910963      49.885678922513947
   239   1   1  0.42    0.068278359161810798      149.40389756792396      49.893856212096544
   240   1   2 -0.42     0.79314162212938621       148.1473650712754      49.885204980179957
   241   1   1  0.42     -2.0970419386950145      150.65934040497623      49.894703051832956
   242   1   2 -0.42     -1.3721786757274397      151.91341985141227      49.886886607368616
   243   1   1  0.42    0.077547850207710489      151.91484283536948      49.895077296734769
   244   1   2 -0.42      0.8024111131752858      150.65814422070517      49.886279114461566
   245   1   1  0.42     -2.0864147603430281      153.17029538428133      49.896126649997328
   246   1   2 -0.42     -1.3615514973754532      154.42418934333071      49.888446831239406
   247   1   1  0.42    0.088175028559696944       154.4258102774464      49.896660560365838
   248   1   2 -0.42     0.81303829152727225      153.16892351099457      49.887672308263085
   249   1   1  0.42     -2.0742914531508529      155.68127629027637      49.897956786940298
   250   1   2 -0.42     -1.3494281901832781      156.93497073411299      49.890449463622787
   251   1   1  0.42     0.10029833575187208      156.93680697148676      49.898699502466307
   252   1   2 -0.42     0.82516159871944739      155.67971034345123      49.889469185791057
   253   1   1  0.42     -2.0605395682531173      158.19228954016799      49.900292693185662
   254   1   2 -0.42     -1.3356763052855423       159.4457702013805      49.892998345419571
   255   1   1  0.42     0.11405022064960813      159.44783769102682      49.901302365518596
   256   1   2 -0.42     0.83891348361718354       158.1905114464239      49.891769347364203
   257   1   1  0.42      -2.045040283678548      160.70333912513453      49.903246667628878
   258   1   2 -0.42     -1.3201770207109726      161.95659118571069      49.896208409978179
   259   1   1  0.42     0.12954950522417752      161.95890355985074      49.904589124719408
   260   1   2 -0.42     0.85441276819175282      160.70133184828768      49.894685659507886
   261   1   1  0.42     -2.0276976148130852      163.21442566922292      49.906939581746109
   262   1   2 -0.42     -1.3028343518455101      164.46743372926534      49.900199642299263
   263   1   1  0.42     0.14689217408964028      164.47000123371512       49.90868510896901
   264   1   2 -0.42     0.87175543705721559      163.21217411478349      49.898339696581893
   265   1   1  0.42     -2.0084488655266015      165.72554592188473      49.911492705703523
   266   1   2 -0.42     -1.2835856025590262      166.97829475489726      49.905087122928045
   267   1   1  0.42     0.16614092337612399      166.98112297932852      49.913710438772156
   268   1   2 -0.42     0.89100418634369938      165.72303805067571      49.902853404569193
   269   1   1  0.42      -1.987275664691925      168.23669276021397      49.917015304723954
   270   1   2 -0.42     -1.2624124017243494      169.48916939065177      49.910966936146515
   271   1   1  0.42     0.18731412421080051      169.49225777269942      49.919765041042517
   272   1   2 -0.42     0.91217738717837593      168.23392093121765      49.908336405510859
   273   1   1  0.42     -1.9642145824774488      170.74785567063006       49.92358824698924
   274   1   2 -0.42     -1.2393513195098733      172.00005300360502      49.917898724537899
   275   1   1  0.42     0.21037520642527685      172.00339314007326      49.926910086186588
   276   1   2 -0.42     0.93523846939285216       170.7448182476318      49.914869180767354
   277   1   1  0.42     -1.9393660078815731      173.25902167484219      49.931245141435653
   278   1   2 -0.42      -1.214502744913998       174.5109431953494      49.925887081242934
   279   1   1  0.42     0.23522378102115216      174.51451708690058       49.93514822270884
   280   1   2 -0.42     0.96008704398872757      173.25572491996138      49.922483700081074
   281   1   1  0.42     -1.9128997881393932      175.77017670489235      49.939954088898389
   282   1   2 -0.42     -1.1880365251718177       177.0218409670959      49.934865456912618
   283   1   1  0.42     0.26169000076333226      177.02561946158167      49.944406599956352
   284   1   2 -0.42     0.98655326373090757      175.76663689988536      49.931144701042705
   285   1   1  0.42     -1.8850561838795086       178.2813073780496      49.949604462779867
   286   1   2 -0.42      -1.160192920911933      179.53275068576841      49.944687185691507
   287   1   1  0.42      0.2895336050232169      179.53669256629135      49.954527678209864
   288   1   2 -0.42      1.0143968679907922      178.27755284329223      49.940736234641754
   289   1   1  0.42     -1.8561410566334069      180.79240292155509      49.960003444432473
   290   1   2 -0.42     -1.1312777936658314      182.04367911109944      49.955127818196132
   291   1   1  0.42     0.31844873226931858      182.04773147675033      49.965272362832422
   292   1   2 -0.42      1.0433119952368939      180.78847519277141      49.951058454370944
   293   1   1  0.42     -1.8265148859003291      183.30345680430469      49.970885591072339
   294   1   2 -0.42     -1.1016516229327538      184.55463406071883      49.965900690909478
   295   1   1  0.42     0.34807490300239646      184.55873465773431      49.976337500815575
   296   1   2 -0.42      1.0729381659699717      183.29940998407042      49.961838151107919
   297   1   1  0.42     -1.7965761234937818      185.81446767981097      49.981935443914963
   298   1   2 -0.42     -1.0717128605262063       187.0656231503786      49.976683965138896
   299   1   1  0.42     0.37801366540894371      187.06970485983874      49.987385661002705
   300   1   2 -0.42       1.102876928376519      185.81036530553027       49.97275308316015
   301   1   1  0.42     -1.7667403507821842      188.32543950217612      49.992819211526374
   302   1   2 -0.42     -1.0418770878146086      189.57665268597131       49.98715379769952
   303   1   1  0.42     0.40784943812054131      189.58064948132997      49.998081109056727
   304   1   2 -0.42      1.1327127010881166      188.32134920583454      49.983465814770156
   305   1   1  0.42     -1.7374174760503565      190.83638088167373      50.003218891224364
   306   1   2 -0.42     -1.0125542130827809      192.08772666037541        49.9970167785143
   307   1   1  0.42     0.43717231285236924      192.09157953352187      50.008124185836998
   308   1   2 -0.42      1.1620355758199445      190.83236815404786      49.993659696745524
   309   1   1  0.42     -1.7089895854353869      193.34730374619841      50.012862259733282
   310   1   2 -0.42     -0.9841263224678114      194.59884593717283       50.00603595228128
   311   1   1  0.42     0.46560020346733877      194.60250717872049      50.017277766812661
   312   1   2 -0.42      1.1904634664349141      193.34342651242179       50.00306955132784
   313   1   1  0.42     -1.6817919343572401      195.85822132938168      50.021544457359091
   314   1   2 -0.42    -0.95692867138966498      197.11000786508632      50.014047353596744
   315   1   1  0.42     0.49279785454548519      197.11344284426107      50.025382727481841
   316   1   2 -0.42      1.2176611175130605       195.8545265466756      50.011502288693187
   317   1   1  0.42     -1.6560989735445029      198.36914567032284      50.029139453401328
   318   1   2 -0.42      -0.931235710576927      199.62120649003103      50.020966195421103
   319   1   1  0.42     0.51849081535822283      199.62439315872732      50.032362143098297