(written by ASE)

2400 atoms
2 atom types

0.0      4.3491795778054509  xlo xhi
0.0      753.30000000000007  ylo yhi
0.0                     200  zlo zhi

Masses

     1                  10.811 # B
     2      14.006699999999999 # N

Atoms # full

     1   1   1  0.42    -0.72502334138256119  2.8876610963900949e-06      50.056702781281075
     2   1   2 -0.42 -0.00016438462189432681      1.2555143340668562      50.049219239660921
     3   1   1  0.42      1.4495663406068262      1.2555142774059995      50.056702785759043
     4   1   2 -0.42      2.1744255145826172  2.9152945416261194e-06      50.049219234961761
     5   1   1  0.42    -0.72502362967450107       2.511025682100152      50.056702790144655
     6   1   2 -0.42 -0.00016484239926603306      3.7665372279613534      50.049219249266933
     7   1   1  0.42      1.4495659025348495      3.7665371125690625      50.056702794562433
     8   1   2 -0.42       2.174425215228827      2.5110257676377405      50.049219244401861
     9   1   1  0.42    -0.72502422000527211       5.022048580390245       50.05670279915212
    10   1   2 -0.42 -0.00016562614777891119      6.2775602745946983      50.049219259864728
    11   1   1  0.42      1.4495651559231246      6.2775600968538701      50.056702804015053
    12   1   2 -0.42      2.1744245964679996      5.0220487263614428      50.049219254381605
    13   1   1  0.42    -0.72502512875222025      7.5330716733969973       50.05670280925581
    14   1   2 -0.42 -0.00016675930764011154       8.788583568667617      50.049219272571314
    15   1   1  0.42      1.4495640775554042      8.7885833227458345      50.056702815030476
    16   1   2 -0.42      2.1744236418681733      7.5330718847607452      50.049219265875728
    17   1   1  0.42    -0.72502638588259838      10.044095056963233      50.056702821576572
    18   1   2 -0.42 -0.00016828105651184696      11.299607212117413      50.049219288788777
    19   1   1  0.42      1.4495626302986102      11.299606889962881      50.056702829132753
    20   1   2 -0.42      2.1744223204677975      10.044095340082251      50.049219280135979
    21   1   1  0.42    -0.72502803626121337      12.555118835249033      50.056702837861792
    22   1   2 -0.42 -0.00017024493821072811      13.810631315825734      50.049219310134262
    23   1   1  0.42      1.4495607628686757      13.810630907005708      50.056702847918679
    24   1   2 -0.42       2.174420584738824       12.55511919918996       50.04921929871545
    25   1   1  0.42    -0.72503013483065049      15.066143120472844      50.056702859498564
    26   1   2 -0.42 -0.00017270750393039809      16.321655997646026      50.049219338287408
    27   1   1  0.42      1.4495584189713715      16.321655490390235      50.056702872876329
    28   1   2 -0.42      2.1744183786760711      15.066143576515824      50.049219323245822
    29   1   1  0.42    -0.72503273884782704      17.577168033882387      50.056702888352454
    30   1   2 -0.42  -0.0001757301243367273      18.832681385627474      50.049219375291656
    31   1   1  0.42      1.4495555400364744      18.832680767724195       50.05670290618621
    32   1   2 -0.42      2.1744156440663462      17.577168594829711      50.049219355543208
    33   1   1  0.42    -0.72503590742086554      20.088193710189614      50.056702926646686
    34   1   2 -0.42 -0.00017937532532567694      21.343707619707303      50.049219423453813
    35   1   1  0.42      1.4495520667072912      21.343706880050927      50.056702950013253
    36   1   2 -0.42       2.174412317824773      20.088194387669002      50.049219397841654
    37   1   1  0.42    -0.72503970200805679      22.599220296261585      50.056702976634021
    38   1   2 -0.42 -0.00018371043302630802      23.854734854300734      50.049219485457257
    39   1   1  0.42      1.4495479323006533      23.854733979201558       50.05670300694922
    40   1   2 -0.42      2.1744083371817613       22.59922110190637      50.049219452491037
    41   1   1  0.42    -0.72504419652192154      25.110247948998349      50.056703041375947
    42   1   2 -0.42 -0.00018882016266040316      26.365763254625485      50.049219563635098
    43   1   1  0.42      1.4495430552190802      26.365762226615196      50.056703079954573
    44   1   2 -0.42      2.1744036263532309      25.110248898108551      50.049219522584657
    45   1   1  0.42    -0.72504948112836987      27.621276833700804      50.056703122613968
    46   1   2 -0.42  -0.0001948045520438834      28.876792994057016       50.04921966179618
    47   1   1  0.42      1.4495373360539798      28.876791792232503      50.056703170900057
    48   1   2 -0.42      2.1743980927507058       27.62127794567451      50.049219609272605
    49   1   1  0.42    -0.72505566343817074      30.132307125145875      50.056703226461543
    50   1   2 -0.42 -0.00020177962153772186      31.387824253845938      50.049219778664359
    51   1   1  0.42      1.4495306604491727      31.387822854869267      50.056703284565486
    52   1   2 -0.42      2.1743916284856986      30.132308422428874      50.049219720217266
    53   1   1  0.42    -0.72506286531648811      32.643339003269922       50.05670334094517
    54   1   2 -0.42 -0.00020987671423454112      33.898857214537557      50.049219922948907
    55   1   1  0.42      1.4495228959670001      33.898855591495938      50.056703413008229
    56   1   2 -0.42      2.1743841097727046      32.643340510864967      50.049219840628567
    57   1   1  0.42     -0.7250712313985993      35.154372637999771      50.056703514623628
    58   1   2 -0.42 -0.00021924247203235783      36.409892036088543      50.049220097006497
    59   1   1  0.42      1.4495138867536426      36.409890158755097      50.056703597466004
    60   1   2 -0.42      2.1743753977666915      35.154374384463523      50.049220021429008
    61   1   1  0.42    -0.72508092929405665      37.665408163483875      50.056703624901886
    62   1   2 -0.42 -0.00023004831644192529      38.920928826494894      50.049220241727028
    63   1   1  0.42      1.4495034485046518      38.920926656536707      50.056703707269264
    64   1   2 -0.42      2.1743653357890271      37.665410181756201      50.049220144031636
    65   1   1  0.42    -0.72509216584851621      40.176445634193627      50.056703936947585
    66   1   2 -0.42 -0.00024250483312943146      41.431967593355246      50.049220634466749
    67   1   1  0.42      1.4494913500960174      41.431965085112296      50.056704126149064
    68   1   2 -0.42      2.1743537332387488      40.176447967593752      50.049220448210875
    69   1   1  0.42     -0.7251051961653765      42.687484989160914      50.056704060410333
    70   1   2 -0.42 -0.00025686696531052738      43.943008226793921      50.049220475010365
    71   1   1  0.42      1.4494773102737117      43.943005322832811        50.0567039384241
    72   1   2 -0.42      2.1743403600764881      42.687487686606119      50.049220596953937
    73   1   1  0.42    -0.72512032908643864       45.19852606716023      50.056704201812913
    74   1   2 -0.42 -0.00027347604485528884      46.454050584211053      50.049221392331461
    75   1   1  0.42      1.4494609963486833      46.454047213062175      50.056704868112291
    76   1   2 -0.42      2.1743249231582746      45.198529195794009      50.049220733896426
    77   1   1  0.42    -0.72513791763849889       47.70956876239341       50.05670520610456
    78   1   2 -0.42 -0.00029274760730503373      48.965094634071214      50.049221164932149
    79   1   1  0.42      1.4494420289820491      48.965090719983223      50.056704626037025
    80   1   2 -0.42      2.1743070381453928      47.709572392328333      50.049221710492745
    81   1   1  0.42    -0.72515838383011066      50.220613099273343      50.056703924728488
    82   1   2 -0.42 -0.00031517771562078451       51.47614048731981      50.049221026451505
    83   1   1  0.42      1.4494199259251928      51.476135913443322      50.056704492542224
    84   1   2 -0.42      2.1742862569660169      50.220617325491176      50.049220486430329
    85   1   1  0.42    -0.72518227652847878      52.731659183469432      50.056706163084804
    86   1   2 -0.42 -0.00034136680317937095      53.987188261118206      50.049223489281815
    87   1   1  0.42      1.4493940780413239      53.987182915475806      50.056706991537332
    88   1   2 -0.42      2.1742620268709634      52.731664128844074      50.049222687093412
    89   1   1  0.42    -0.72521026660179255      55.242707105218678      50.056705714743458
    90   1   2 -0.42 -0.00037206045200488319      56.498238048093462      50.049220556296994
    91   1   1  0.42      1.4493637298870017      56.498231763832869       50.05670397215453
    92   1   2 -0.42      2.1742336965583369      55.242712897156487      50.049222232207192
    93   1   1  0.42    -0.72524322189216028      57.753756901373244      50.056704508963222
    94   1   2 -0.42 -0.00040827804026734445      59.009290010008897      50.049223619002369
    95   1   1  0.42      1.4493278998303611      59.009282570898925      50.056707107031968
    96   1   2 -0.42      2.1742003769956542      57.753763751971569      50.049221082967023
    97   1   1  0.42    -0.72528220045650771      60.264808763328816      50.056708385878999
    98   1   2 -0.42 -0.00045107272924856042      61.520344248900642      50.049222896585043
    99   1   1  0.42      1.4492854770972641      61.520335458287512      50.056706378885004
   100   1   2 -0.42      2.1741610043616437      60.264816849674673      50.049224855862349
   101   1   1  0.42    -0.72532838251247689      62.775862610592192      50.056703815551344
   102   1   2 -0.42 -0.00050162525109200245      64.031400567686433      50.049221462571488
   103   1   1  0.42      1.4492352125388435       64.03139014220362      50.056704890922468
   104   1   2 -0.42      2.1741144913287234       62.77587216406166      50.049220402842529
   105   1   1  0.42    -0.72538301110312875      65.286918069852348      50.056709376201887
   106   1   2 -0.42 -0.00056105150150817463      66.542458458742516      50.049228928210013
   107   1   1  0.42        1.44917597547855      66.542446245610634      50.056712416479776
   108   1   2 -0.42       2.174059618028382      65.286929328828165      50.049225845631874
   109   1   1  0.42    -0.72544714615641515      67.797974652686207       50.05671151766586
   110   1   2 -0.42 -0.00063050307994605664       69.05351738529437      50.049225835220298
   111   1   1  0.42      1.4491065697389078      69.053503125830829      50.056709797904595
   112   1   2 -0.42      2.1739953662814546      67.797987810914975      50.049227941974969
   113   1   1  0.42    -0.72552227802717295      70.309031649291597       50.05670666581635
   114   1   2 -0.42 -0.00071177512042789074      71.564576766551681      50.049212141631422
   115   1   1  0.42      1.4490252299843531      71.564560144945688      50.056694414870442
   116   1   2 -0.42      2.1739202345689943      70.309047063854564      50.049223838525165
   117   1   1  0.42    -0.72561038443415182      72.820088395052935      50.056678475059201
   118   1   2 -0.42 -0.00080708736650303013      74.075636126560397      50.049204167531158
   119   1   1  0.42      1.4489296831158787      74.075616412833853      50.056687617147645
   120   1   2 -0.42      2.1738323337578089      72.820106471950808      50.049192501917481
   121   1   1  0.42    -0.72571411830877919       75.33114434702216      50.056736755307767
   122   1   2 -0.42 -0.00091971979681823785      76.586695485100407       50.04928649291287
   123   1   1  0.42      1.4488170212613203       76.58667227604505      50.056776100182198
   124   1   2 -0.42      2.1737286568418548      75.331165834228344       50.04925779662458
   125   1   1  0.42      -0.725836183192482      77.842200209308587      50.056745679745234
   126   1   2 -0.42  -0.0010514996368671641      79.097754726306292       50.04923056737811
   127   1   1  0.42       1.448684919588205      79.097727185803549      50.056710132775628
   128   1   2 -0.42      2.1736068174208616      77.842224803629918      50.049258361819049
   129   1   1  0.42    -0.72597915253449197      80.353254707429301      50.056766410694237
   130   1   2 -0.42  -0.0012059572505317606      81.608814038987603      50.049359301364355
   131   1   1  0.42      1.4485307231682361      81.608781615087068       50.05684218592927
   132   1   2 -0.42      2.1734640042770108      80.353283960090963      50.049280891944036
   133   1   1  0.42    -0.72614398626766596      82.864311162838575      50.056658157060951
   134   1   2 -0.42  -0.0013803131254505514      84.119870430826268      50.048443231917773
   135   1   1  0.42        1.44835522986521      84.119834919867301      50.055904817334294
   136   1   2 -0.42      2.1732989955381736      82.864341027191671      50.049173947556227
   137   1   1  0.42     -0.7263307686673699      85.375362268704237      50.054666003536035
   138   1   2 -0.42  -0.0015780850799962036      86.630921069165694      50.046111175894417
   139   1   1  0.42      1.4481525400412794      86.630866996027393      50.053452219031414
   140   1   2 -0.42      2.1731155875561212      85.375388528134749      50.047206183863764
   141   1   1  0.42     -0.7265536655100463      87.886394602552897      50.053766837781687
   142   1   2 -0.42  -0.0018300814930589395      89.141983525709421      50.050422591206235
   143   1   1  0.42      1.4478972960272647      89.141852947180098      50.057220078322715
   144   1   2 -0.42      2.1728999282654127       87.88642026693698      50.046124365605657
   145   1   1  0.42    -0.72685528447238978      90.397359800715691      50.070223142871399
   146   1   2 -0.42  -0.0022427109102433293      91.652887575058529       50.08796883414773
   147   1   1  0.42      1.4475330862099638      91.652599200158903      50.090448599330493
   148   1   2 -0.42      2.1726079527141571      90.397401848673439      50.060545759939735
   149   1   1  0.42    -0.72732766434580298      92.907732083228083      50.136479451996323
   150   1   2 -0.42  -0.0029741290068067703      94.163496109057192      50.165300000000002
   151   1   1  0.42      1.4470454036898535      94.163435103293835      50.145199577359314
   152   1   2 -0.42      2.1721325548810926      92.907968105411385      50.113164381049224
   153   1   1  0.42    -0.72763932514478824      95.419138594818151      50.136253343472625
   154   1   2 -0.42  -0.0028667591159757515      96.674080127878653      50.087146527926912
   155   1   1  0.42      1.4469081345943073      96.674251489085805      50.089623310875474
   156   1   2 -0.42       2.171820402917898      95.419013765558276        50.1129244651272
   157   1   1  0.42    -0.72779634155259965      97.929472834887505      50.068654292900007
   158   1   2 -0.42   -0.003088898574393525      99.184960728746347      50.048520525281894
   159   1   1  0.42      1.4466344579288579      99.184968281924554      50.055303692924575
   160   1   2 -0.42      2.1716695339782333      97.929549072736762      50.058984913276156
   161   1   1  0.42    -0.72814588004793845      100.44041691048569      50.052124517145259
   162   1   2 -0.42  -0.0035038656239923336      101.69601154333238      50.045017948017744
   163   1   1  0.42      1.4462214994407319      101.69593303060036      50.052359390753494
   164   1   2 -0.42      2.1713123360000175      100.44051971301403      50.044496576263903
   165   1   1  0.42    -0.72861193302299809       102.9514241864595      50.053928490323102
   166   1   2 -0.42  -0.0040171724047064952      104.20704109781043      50.047834032721127
   167   1   1  0.42      1.4457100978693107      104.20693468323451      50.055291467293813
   168   1   2 -0.42      2.1708409407358866      102.95153429583404      50.046464393746824
   169   1   1  0.42    -0.72916995520008521      105.46243788721299      50.056225086254429
   170   1   2 -0.42  -0.0046218057734738801      106.71806944617752      50.049261970764107
   171   1   1  0.42      1.4451043186086137      106.71794445679718      50.056748610018566
   172   1   2 -0.42      2.1702827580228345       105.4625573644004      50.048743920639389
   173   1   1  0.42     -0.7298278662998352      107.97344706697983      50.056952859018672
   174   1   2 -0.42  -0.0053343323965778797       109.2290948785873      50.049441740019311
   175   1   1  0.42      1.4443897708108673      109.22894843931897      50.056930229127929
   176   1   2 -0.42      2.1696265377814723      107.97358315152738      50.049462707914515
   177   1   1  0.42    -0.73060449875921452      110.48444661224006      50.056810776045509
   178   1   2 -0.42   -0.006176367097510075      111.74011636084933      50.049223139877206
   179   1   1  0.42       1.443545689269514      111.73994299155547      50.056708218979828
   180   1   2 -0.42      2.1688520620398752      110.48460633594458      50.049322877018191
   181   1   1  0.42    -0.73152158166661541      112.99543717614372      50.056665835323898
   182   1   2 -0.42  -0.0071704979703413477      114.25113438359324       50.04917447911459
   183   1   1  0.42      1.4425498083273616      114.25092968220088      50.056660034590692
   184   1   2 -0.42      2.1679368049619461      112.99562580363181      50.049182046706882
   185   1   1  0.42    -0.73260241520195135      115.50642028431115      50.056658076994559
   186   1   2 -0.42  -0.0083408332748557846      116.76214960042502      50.049168470784771
   187   1   1  0.42      1.4413774963972383       116.7619088994493      50.056653311705929
   188   1   2 -0.42      2.1668578072506199      115.50664232498596      50.049172210821347
   189   1   1  0.42    -0.73387334497227941      118.01739531343965       50.05665725213499
   190   1   2 -0.42  -0.0097158228281791856      119.27316214779751      50.049189935448247
   191   1   1  0.42      1.4400002687355431       119.2728795556223      50.056677815661367
   192   1   2 -0.42      2.1655890096002604      118.01765625783919      50.049170794547514
   193   1   1  0.42    -0.73536500404632166      120.52836147968473      50.056686917088321
   194   1   2 -0.42   -0.011328054285729446      121.78417158978269      50.049132558269442
   195   1   1  0.42      1.4383855340310736      121.78384106356918      50.056619204822283
   196   1   2 -0.42      2.1640996181089238      120.52866737447471      50.049202811865499
   197   1   1  0.42    -0.73711216514753664       123.0393174168865      50.056458451019722
   198   1   2 -0.42   -0.013214741283996127      124.29517755937758      50.048856927854779
   199   1   1  0.42      1.4364955647311022      124.29479047618884      50.056333074542593
   200   1   2 -0.42      2.1623555054811874      123.03967496178662      50.048968831116206
   201   1   1  0.42    -0.73915656413063702      125.55026048082749      50.056400938365925
   202   1   2 -0.42   -0.015423609153951015       126.8061821981257      50.049111104837245
   203   1   1  0.42      1.4342843096653346      126.80572873983614      50.056604222468131
   204   1   2 -0.42      2.1603140107365943      125.55068004585148      50.048919310276695
   205   1   1  0.42    -0.74154777824207652      128.06119510790279      50.056793137040877
   206   1   2 -0.42   -0.018007144231509283      129.31718995971582      50.049552878561144
   207   1   1  0.42      1.4316981222380627      129.31665867415728      50.057052778036123
   208   1   2 -0.42      2.1579250839344053      128.06168503385044      50.049302293525557
   209   1   1  0.42    -0.74434596336597658      130.57212131214277      50.057779127412452
   210   1   2 -0.42   -0.021036334781222125      131.82821075471082      50.051731044516679
   211   1   1  0.42      1.4286696286813467      131.82758358616002      50.059271835471975
   212   1   2 -0.42      2.1551290080135206       130.5726971482402      50.050273877787184
   213   1   1  0.42    -0.74762155652417928      133.08305808084924      50.060859770237172
   214   1   2 -0.42   -0.024581588343639448      134.33925538197744      50.052953883928403
   215   1   1  0.42      1.4251322932794313       134.3385370884217      50.060602528176894
   216   1   2 -0.42      2.1518483014591578       133.0837265484806      50.053312728014674
   217   1   1  0.42    -0.75142649640013781       135.5940321784305      50.054721779407728
   218   1   2 -0.42   -0.028654819934139739      136.85017068556988      50.031075771736354
   219   1   1  0.42      1.4210568596935866      136.84939888832753       50.03898151110667
   220   1   2 -0.42      2.1480348964147913      135.59475273984694      50.047487319260014
   221   1   1  0.42      -0.755747168692261      138.10449793998751      50.005126805998856
   222   1   2 -0.42   -0.033175000033817834      139.35960810578854      49.946222340967346
   223   1   1  0.42      1.4164738057182311      139.35883279312506      49.957857649902991
   224   1   2 -0.42      2.1437260733327532      138.10519672502232      50.000568063265959
   225   1   1  0.42    -0.76048077147415805       140.6127017112415      49.886530674288132
   226   1   2 -0.42   -0.038160192265686392       141.8685671282748      49.834699999999998
   227   1   1  0.42      1.4113444406304856      141.86755470354194      49.869705384904336
   228   1   2 -0.42       2.138991916879005      140.61369306981328       49.89686426725136
   229   1   1  0.42    -0.76558763098865878      143.12233285138583      49.890738278084811
   230   1   2 -0.42   -0.043404167137183737      144.37721572006899      49.953704784127297
   231   1   1  0.42      1.4062455203210973      144.37602466933851      49.965389709130903
   232   1   2 -0.42      2.1338835265282543      143.12325569224546      49.901145613305076
   233   1   1  0.42    -0.77112847421901565      145.63033674254373      50.013823377847409
   234   1   2 -0.42   -0.049261853760593416      146.88671507208051      50.038380238092458
   235   1   1  0.42       1.400455026136932       146.8854921264909      50.046404185268614
   236   1   2 -0.42      2.1283396756097428       145.6316022341868      50.009180281514283
   237   1   1  0.42    -0.77735472830388175      148.14092098433494       50.05922410587862
   238   1   2 -0.42   -0.055975707556585388      149.39782291901273      50.054381108437141
   239   1   1  0.42       1.393736930997479      149.39644441948866      50.062073117858851
   240   1   2 -0.42      2.1221049464127466      148.14223361998299      50.051902506821165
   241   1   1  0.42    -0.78465449301810675      150.65193962087281      50.060254360652003
   242   1   2 -0.42    -0.06389924523717444      151.90905217476222      50.049993150123413
   243   1   1  0.42      1.3858060733265183      151.90743089196087      50.057541915130656
   244   1   2 -0.42      2.1148171465505357      150.65343935414126      50.052695757455353
   245   1   1  0.42    -0.79325207026313493        153.162916419883      50.055262785970854
   246   1   2 -0.42   -0.073186314225014343      154.42029867555851      50.046309949265506
   247   1   1  0.42      1.3765200047140849      154.41840658311972      50.053792569687211
   248   1   2 -0.42      2.1062224550144912      153.16467261965241      50.047761311622686
   249   1   1  0.42    -0.80324649656466163       155.6739020313041      50.053021408079694
   250   1   2 -0.42   -0.083916773272557588      156.93158218454087      50.045193772505037
   251   1   1  0.42      1.3657949375929377      156.92940506353304      50.052667608084754
   252   1   2 -0.42      2.0962243980572843      155.67593477280474      50.045547911934477
   253   1   1  0.42    -0.81472950273381473      158.18491616677991      50.052416430532524
   254   1   2 -0.42    -0.09619443890964359      159.44291630425596      50.044581020950766
   255   1   1  0.42      1.3535241134571936      159.44043519501167       50.05205987731896
   256   1   2 -0.42       2.084735013483892      158.18724243777569      50.044940488476826
   257   1   1  0.42    -0.82781854645333441      160.69596206633108      50.051547174822296
   258   1   2 -0.42    -0.11014109092917435      161.95430556486519      50.043451765835137
   259   1   1  0.42      1.3395853898953145      161.95149644317306      50.050926331480483
   260   1   2 -0.42      2.0716387381273424      160.69860383943646      50.044070785861287
   261   1   1  0.42    -0.84264103504333332      163.20703839354442       50.05023738489065
   262   1   2 -0.42    -0.12589210488269711      164.46575269341099       50.04201730373056
   263   1   1  0.42      1.3238445856682968       164.4625891614476      50.049488184273009
   264   1   2 -0.42      2.0568072820244163          163.2100219923      50.042763916919441
   265   1   1  0.42    -0.85933005128212581      165.71814965807121      50.048680222745048
   266   1   2 -0.42    -0.14356437691792312      166.97725621798222      50.040353951382343
   267   1   1  0.42      1.3061852961729403      166.97372142012023       50.04782009769918
   268   1   2 -0.42      2.0401067184848154      165.72149763607129      50.041211903441656
   269   1   1  0.42    -0.87797324462637039      168.22930553996289       50.04691671543123
   270   1   2 -0.42    -0.16321207186646813      169.48881322030718      50.038514600542605
   271   1   1  0.42      1.2865536557602368      169.48490361586988      50.045976513392297
   272   1   2 -0.42      2.0214490093379944       168.2330283284044      50.039452792926546
   273   1   1  0.42    -0.89858698615162913      170.74051709602892      50.045003549207536
   274   1   2 -0.42    -0.18480910780397813      172.00041820461382      50.036546747784065
   275   1   1  0.42      1.2649754644722853      171.99614683375714       50.04400552684347
   276   1   2 -0.42      2.0008177659580531      170.74461002891462      50.037543222675197
   277   1   1  0.42    -0.92110338794668201      173.25179342125006      50.042998689611444
   278   1   2 -0.42    -0.20825432946004652      174.51206710055962      50.034546448504813
   279   1   1  0.42      1.2415515279803342      174.50745666246763      50.042003927943114
   280   1   2 -0.42      1.9782812692149743      173.25623720282195      50.035540969405282
   281   1   1  0.42    -0.94540247273003697      175.76313682399822      50.041040309916077
   282   1   2 -0.42    -0.23341772406819872      177.02375749776522       50.03266273213324
   283   1   1  0.42       1.216411563301605      177.01883375847646      50.040122277768326
   284   1   2 -0.42      1.9539597593697848      175.76790732161726      50.033582344440752
   285   1   1  0.42    -0.97134520194420337      178.27454793373525       50.03926219686781
   286   1   2 -0.42    -0.26014459656118794      179.53548323635715      50.031009007594605
   287   1   1  0.42      1.1897097113874913      179.53027913418157      50.038474695167594
   288   1   2 -0.42      1.9279927334911766      178.27961641925771      50.031800188115362
   289   1   1  0.42    -0.99875614593602857      180.78602778175235      50.037773992579716
   290   1   2 -0.42     -0.2882327569728011      182.04723424643612      50.029691931031316
   291   1   1  0.42      1.1616475693952537      182.04179378389392      50.037169518901308
   292   1   2 -0.42      1.9005561194918161      180.79135644414322      50.030303182924335
   293   1   1  0.42     -1.0274006119885275      183.29757799511103      50.036663602786284
   294   1   2 -0.42    -0.31740097842752074      184.55899404842671      50.028761366748839
   295   1   1  0.42      1.1325042326834192      184.55338052219685      50.036256772239632
   296   1   2 -0.42      1.8718860121236722      183.30311431073397      50.029177950206197
   297   1   1  0.42     -1.0569449073466772      185.80920096647105      50.035951308942394
   298   1   2 -0.42    -0.34725444866043204      187.07074263080105      50.028235119531772
   299   1   1  0.42      1.1026698630220559      187.06503996743916      50.035754783788164
   300   1   2 -0.42      1.8423194375898162      185.81487037699949      50.028444587838898
   301   1   1  0.42     -1.0869489904572496      188.32089532685902      50.035676885190675
   302   1   2 -0.42    -0.37732642925186738      189.58246448922523      50.028175522380089
   303   1   1  0.42      1.0726169615575707      189.57676473792819       50.03572605367858
   304   1   2 -0.42       1.812295806563667       188.3266080615827      50.028142595424967
   305   1   1  0.42     -1.1169332739583659      190.83264697075842      50.035907326771536
   306   1   2 -0.42    -0.40713994550791621      192.09415101963509      50.028636718996424
   307   1   1  0.42      1.0428140635878125      192.08853885773109      50.036224545698715
   308   1   2 -0.42      1.7822970945606003      190.83831261741295      50.028339093473299
   309   1   1  0.42     -1.1464526139335982       193.3444374487128       50.03667934647612
   310   1   2 -0.42    -0.43629076534782613      194.60579680499666      50.029639854345447
   311   1   1  0.42      1.0136686731186011      194.60034090031024      50.037270844621858
   312   1   2 -0.42      1.7527696089678393      193.34997936389266      50.029070574472065
   313   1   1  0.42     -1.1751419044541604      195.85624682935264      50.037990350613605
   314   1   2 -0.42    -0.46444834451170491      197.11739526851085      50.031140381023391
   315   1   1  0.42     0.98551163187344137      197.11215390822167      50.038819504325375
   316   1   2 -0.42      1.7240773102924314      195.86160248220082      50.030335906586693
   317   1   1  0.42     -1.2026952901772394      198.36806019428869      50.039733258861382
   318   1   2 -0.42    -0.49132665485709331      199.62893991848878         50.032977625346
   319   1   1  0.42     0.95862885156014266      199.62396458705399      50.040707887257874