(written by ASE)

1600 atoms
2 atom types

0.0      4.3491795778054509  xlo xhi
0.0      502.20000000000005  ylo yhi
0.0                     200  zlo zhi

Masses

     1                  10.811 # B
     2      14.006699999999999 # N

Atoms # full

     1   1   1  0.42    -0.72486325898040127 -4.8220057946579695e-09      50.059650457622809
     2   1   2 -0.42 -1.5647178683204928e-08      1.2554999951684718      50.049188258607799
     3   1   1  0.42      1.4497265282565233      1.2554999946127041      50.059650458179817
     4   1   2 -0.42      2.1745897998710948 -1.4590351926635494e-08      50.049188261876999
     5   1   1  0.42    -0.72486327673892936      2.5110000024391317      50.059650457529948
     6   1   2 -0.42  9.3306164191301426e-09      3.7664999838795197      50.049188260626046
     7   1   1  0.42      1.4497265210974182      3.7664999893587652       50.05965045799492
     8   1   2 -0.42      2.1745898072663326      2.5110000173501623      50.049188260800662
     9   1   1  0.42    -0.72486328177384973      5.0220000166267393      50.059650457905803
    10   1   2 -0.42  9.3460202757406038e-09      6.2775000002431396      50.049188260277546
    11   1   1  0.42      1.4497265131289871       6.277500002945299      50.059650457792529
    12   1   2 -0.42      2.1745898054769581      5.0219999934203603      50.049188260003149
    13   1   1  0.42    -0.72486325873194535      7.5329999952660209      50.059650457809511
    14   1   2 -0.42 -1.5299403630649354e-08       8.788500004031544      50.049188260115486
    15   1   1  0.42      1.4497265413926694       8.788499996060823      50.059650457868429
    16   1   2 -0.42      2.1745897857629499      7.5330000119844467      50.049188260385435
    17   1   1  0.42    -0.72486324515324285      10.044000004230982      50.059650457826777
    18   1   2 -0.42 -1.4282818551560616e-08      11.299499997571614       50.04918826038999
    19   1   1  0.42      1.4497265397179708      11.299499998077501      50.059650457817597
    20   1   2 -0.42      2.1745897724489454      10.044000000048078      50.049188260268487
    21   1   1  0.42    -0.72486325537123919      12.554999994356283      50.059650457854389
    22   1   2 -0.42 -1.7445184000382126e-09       13.81050000462673      50.049188260402957
    23   1   1  0.42      1.4497265305866027      13.810499997206394      50.059650457791591
    24   1   2 -0.42      2.1745897789498967      12.555000003702439      50.049188260088584
    25   1   1  0.42    -0.72486326091577091      15.066000000758949      50.059650457799023
    26   1   2 -0.42  -2.669803631210594e-09      16.321499996000405      50.049188260027343
    27   1   1  0.42      1.4497265288905132      16.321500006604083      50.059650457861117
    28   1   2 -0.42      2.1745897872379976       15.06599999564585      50.049188260259839
    29   1   1  0.42    -0.72486326161938663      17.577000002524027       50.05965045778531
    30   1   2 -0.42 -1.8934514489691973e-09       18.83249999920293      50.049188260103563
    31   1   1  0.42      1.4497265274362738      18.832499997422456      50.059650457845031
    32   1   2 -0.42      2.1745897863452068      17.576999998129953      50.049188260531785
    33   1   1  0.42    -0.72486326204328155      20.088000000468689      50.059650457790305
    34   1   2 -0.42  1.9894386721417296e-09      21.343499998451531      50.049188260269958
    35   1   1  0.42      1.4497265232050056      21.343500000310648       50.05965045783006
    36   1   2 -0.42      2.1745897888142895      20.088000001564485      50.049188260247533
    37   1   1  0.42    -0.72486326329243855      22.599000001082558      50.059650457840569
    38   1   2 -0.42  1.3095408803216781e-09      23.854500000799408      50.049188260361447
    39   1   1  0.42      1.4497265227960483      23.854499999216021      50.059650457846317
    40   1   2 -0.42      2.1745897903338229      22.598999999080107      50.049188260256663
    41   1   1  0.42    -0.72486326228104614      25.109999998689819      50.059650457842309
    42   1   2 -0.42  1.0418347547793234e-09      26.365500000106415       50.04918826029764
    43   1   1  0.42      1.4497265252637486      26.365499999850599      50.059650457853941
    44   1   2 -0.42      2.1745897891137806      25.110000002204576      50.049188260181573
    45   1   1  0.42     -0.7248632614054038      27.621000000886024        50.0596504578495
    46   1   2 -0.42  1.9917100258044902e-09       28.87649999941857       50.04918826016371
    47   1   1  0.42      1.4497265234981935       28.87649999965058       50.05965045785242
    48   1   2 -0.42       2.174589787237529       27.62099999890658      50.049188260341417
    49   1   1  0.42    -0.72486326088843844       30.13200000042691      50.059650457887336
    50   1   2 -0.42  1.2820340526460371e-09      31.387499999578008      50.049188260420216
    51   1   1  0.42      1.4497265241293182      31.387499998759107      50.059650457843375
    52   1   2 -0.42      2.1745897873316506      30.132000001689395      50.049188260255519
    53   1   1  0.42    -0.72486326335658358      32.642999999356739      50.059650457862205
    54   1   2 -0.42  1.8579613197708848e-09      33.898500002043448      50.049188260393038
    55   1   1  0.42      1.4497265240461186       33.89849999998934      50.059650457850481
    56   1   2 -0.42      2.1745897894769781      32.642999999701274      50.049188260034981
    57   1   1  0.42    -0.72486326363129328      35.153999997439875      50.059650457882711
    58   1   2 -0.42  1.5667596913653929e-09      36.409500000627943      50.049188260182717
    59   1   1  0.42      1.4497265250503995      36.409499998750505      50.059650457838423
    60   1   2 -0.42      2.1745897889520247      35.154000001593786      50.049188260376724
    61   1   1  0.42    -0.72486326147995284      37.665000001514443      50.059650457845663
    62   1   2 -0.42 -1.8981882656479017e-09      38.920499999914888      50.049188260422262
    63   1   1  0.42      1.4497265265645933      38.920500000394419      50.059650457831381
    64   1   2 -0.42      2.1745897882233924        37.6650000002615      50.049188260206193
    65   1   1  0.42    -0.72486326241741905      40.175999999085136      50.059650457824191
    66   1   2 -0.42 -1.1091191067635859e-09      41.431500000702769      50.049188260199742
    67   1   1  0.42      1.4497265278015337      41.431500001296406      50.059650457859831
    68   1   2 -0.42      2.1745897889940315      40.175999998424636      50.049188260172087
    69   1   1  0.42    -0.72486326441101678      42.686999999282882      50.059650457866042
    70   1   2 -0.42  7.6671320479377151e-10      43.942499997824321        50.0491882601941
    71   1   1  0.42      1.4497265286935779      43.942499999441637      50.059650457825441
    72   1   2 -0.42      2.1745897878393814      42.687000001197909      50.049188260406815
    73   1   1  0.42    -0.72486326617509467      45.198000003301651      50.059650457806256
    74   1   2 -0.42  1.1038259670175432e-09      46.453499999509397      50.049188260323149
    75   1   1  0.42       1.449726524602621      46.453499998916442      50.059650457876472
    76   1   2 -0.42      2.1745897901192288      45.197999998549562      50.049188260193276
    77   1   1  0.42    -0.72486326275351487      47.709000000889041      50.059650457855945
    78   1   2 -0.42  7.5671001265118511e-10      48.964499996559127      50.049188260212333
    79   1   1  0.42      1.4497265253178284       48.96450000109774      50.059650457823281
    80   1   2 -0.42      2.1745897895983344      47.709000001613084      50.049188260337253
    81   1   1  0.42    -0.72486325967317256      50.220000002529915      50.059650457868663
    82   1   2 -0.42 -1.1782336560948519e-09      51.475500000014499      50.049188260415157
    83   1   1  0.42      1.4497265272105051       51.47549999981868      50.059650457819984
    84   1   2 -0.42      2.1745897849113067      50.220000000277274      50.049188260205867
    85   1   1  0.42    -0.72486326235972887      52.730999999556296      50.059650457836447
    86   1   2 -0.42 -4.0724648609780658e-10      53.986500001861486      50.049188260190334
    87   1   1  0.42      1.4497265263884025      53.986500000997815      50.059650457871264
    88   1   2 -0.42      2.1745897884724834      52.730999996792377      50.049188260182454
    89   1   1  0.42    -0.72486326640524412      55.241999997608467      50.059650457836888
    90   1   2 -0.42  2.1017968348468475e-09      56.497499996678258      50.049188260151233
    91   1   1  0.42      1.4497265295054895      56.497499999782377      50.059650457816076
    92   1   2 -0.42      2.1745897897784534      55.242000002490926      50.049188260439038
    93   1   1  0.42    -0.72486326700625492      57.753000004785804      50.059650457833001
    94   1   2 -0.42  2.1385346647380824e-10      59.008500001034975      50.049188260389521
    95   1   1  0.42       1.449726528462743      59.008499997745815      50.059650457821839
    96   1   2 -0.42       2.174589787535735      57.752999999624819       50.04918826023367
    97   1   1  0.42    -0.72486326234488929      60.263999997654871      50.059650457845464
    98   1   2 -0.42 -8.3649526838302659e-10      61.519499999978208      50.049188260210876
    99   1   1  0.42       1.449726528513986      61.519500002547886       50.05965045785419
   100   1   2 -0.42      2.1745897869250963      60.264000000800195      50.049188260189283
   101   1   1  0.42    -0.72486326526742795      62.775000000819723      50.059650457812431
   102   1   2 -0.42  9.4968422486155775e-10       64.03049999776664      50.049188260098845
   103   1   1  0.42      1.4497265261975389      64.030499998701686      50.059650457864969
   104   1   2 -0.42      2.1745897896177118      62.774999997852568      50.049188260454549
   105   1   1  0.42    -0.72486326419797154      65.286000002498568      50.059650457853877
   106   1   2 -0.42  7.8175414468476175e-10      66.541500000099546       50.04918826043847
   107   1   1  0.42      1.4497265257340775       66.54149999533989      50.059650457800529
   108   1   2 -0.42      2.1745897884437788      65.286000004445256      50.049188260288943
   109   1   1  0.42    -0.72486326116643252      67.796999999379779      50.059650457860151
   110   1   2 -0.42 -1.0781728701745779e-09      69.052500000151596      50.049188260429936
   111   1   1  0.42      1.4497265261736174      69.052500004874787      50.059650457867818
   112   1   2 -0.42      2.1745897882034759      67.796999999953968      50.049188259981833
   113   1   1  0.42    -0.72486326490603292      70.307999997564167      50.059650457835794
   114   1   2 -0.42 -7.1547225794974574e-10      71.563500002200769       50.04918826000042
   115   1   1  0.42      1.4497265238427057       71.56349999675534      50.059650457884928
   116   1   2 -0.42      2.1745897916925148      70.307999996993743      50.049188260403966
   117   1   1  0.42    -0.72486326267870882      72.819000003363044        50.0596504577953
   118   1   2 -0.42 -1.2014377806934065e-09      74.074499993920284      50.049188260437795
   119   1   1  0.42       1.449726524968761      74.074499999831616      50.059650457838011
   120   1   2 -0.42      2.1745897927045337      72.819000003883659      50.049188260390629
   121   1   1  0.42    -0.72486326378216359      75.330000001292987      50.059650457856677
   122   1   2 -0.42  9.0929660844687012e-11       76.58550000427428      50.049188260409657
   123   1   1  0.42      1.4497265255119727      76.585500000827835       50.05965045785922
   124   1   2 -0.42      2.1745897900198954       75.32999999869422      50.049188259963437
   125   1   1  0.42    -0.72486326401319467      77.840999995476295      50.059650457835602
   126   1   2 -0.42 -1.5371452978326509e-09      79.096500000364173      50.049188259999944
   127   1   1  0.42      1.4497265288792587      79.096499999110264      50.059650457868734
   128   1   2 -0.42      2.1745897891267818      77.841000000445717      50.049188260420593
   129   1   1  0.42    -0.72486325986557432      80.352000004490407      50.059650457809347
   130   1   2 -0.42 -3.7081944841230126e-09      81.607499996698749      50.049188260425993
   131   1   1  0.42      1.4497265277458911      81.607499996461016      50.059650457848001
   132   1   2 -0.42      2.1745897859997361      80.352000002500304      50.049188260372105
   133   1   1  0.42    -0.72486326110560573      82.862999998479822      50.059650457847241
   134   1   2 -0.42  1.7096900590952013e-10      84.118500002397511      50.049188260425396
   135   1   1  0.42      1.4497265228643603      84.118500001601362      50.059650457872621
   136   1   2 -0.42      2.1745897897322366      82.863000001107551      50.049188260002495
   137   1   1  0.42    -0.72486326334108531      85.373999999740164      50.059650457827686
   138   1   2 -0.42 -7.2133654322628657e-10       86.62949999796642      50.049188260006602
   139   1   1  0.42      1.4497265237082431      86.629500001341569      50.059650457875883
   140   1   2 -0.42      2.1745897930194364      85.373999996495954      50.049188260379928
   141   1   1  0.42    -0.72486326228028941      87.885000002901336        50.0596504578115
   142   1   2 -0.42 -1.0868681397719386e-09      89.140499998268453      50.049188260404023
   143   1   1  0.42      1.4497265271076478      89.140499996448156      50.059650457830365
   144   1   2 -0.42      2.1745897891408568      87.885000003375993      50.049188260381236
   145   1   1  0.42    -0.72486326358749342      90.395999999673847      50.059650457853508
   146   1   2 -0.42 -5.4242634955890959e-10      91.651500001465294      50.049188260440211
   147   1   1  0.42      1.4497265274244175      91.651500003982278      50.059650457852712
   148   1   2 -0.42      2.1745897890255668      90.395999999597748      50.049188259963309
   149   1   1  0.42    -0.72486326204666973      92.906999998557765      50.059650457848612
   150   1   2 -0.42 -3.3673817312300532e-09      94.162500001354402      50.049188260042001
   151   1   1  0.42      1.4497265273278832       94.16249999817677      50.059650457876415
   152   1   2 -0.42      2.1745897875670512      92.906999997592649      50.049188260384803
   153   1   1  0.42    -0.72486326245613886      95.418000000701554       50.05965045775519
   154   1   2 -0.42 -5.8099156987608042e-11      96.673499996046402      50.049188260260365
   155   1   1  0.42      1.4497265224062388      96.673499998103637      50.059650457909612
   156   1   2 -0.42      2.1745897919933928      95.418000002503732      50.049188260426149
   157   1   1  0.42    -0.72486326255597167      97.929000003553625      50.059650457865501
   158   1   2 -0.42 -2.1118573263319168e-10      99.184499999466453      50.049188260426881
   159   1   1  0.42      1.4497265229130736      99.184499999093831       50.05965045779854
   160   1   2 -0.42      2.1745897921600075      97.929000001284365      50.049188260212865
   161   1   1  0.42    -0.72486326104497789      100.43999999928151      50.059650457836632
   162   1   2 -0.42 -2.0015826889126994e-09      101.69550000079468      50.049188260399468
   163   1   1  0.42      1.4497265282222749      101.69550000230073      50.059650457857821
   164   1   2 -0.42      2.1745897887299637      100.44000000028407      50.049188259981179
   165   1   1  0.42    -0.72486326364874665      102.95099999897704       50.05965045783968
   166   1   2 -0.42  1.8325956951292127e-09      104.20649999953235      50.049188259998346
   167   1   1  0.42      1.4497265253827527      104.20649999925477      50.059650457840817
   168   1   2 -0.42      2.1745897882149037      102.95099999748419      50.049188260408094
   169   1   1  0.42    -0.72486326148521496      105.46200000246974       50.05965045784545
   170   1   2 -0.42 -8.3479030409225133e-11       106.7174999982806      50.049188260470359
   171   1   1  0.42       1.449726526614334      106.71749999681366      50.059650457811614
   172   1   2 -0.42      2.1745897862046348      105.46200000376234      50.049188260365277
   173   1   1  0.42      -0.724863261862845      107.97299999977926      50.059650457851532
   174   1   2 -0.42  3.1647349408727961e-10      109.22850000089292      50.049188260421239
   175   1   1  0.42      1.4497265250054145      109.22850000378482      50.059650457850658
   176   1   2 -0.42      2.1745897883005343      107.97299999919768      50.049188259955898
   177   1   1  0.42    -0.72486326412977153      110.48399999869045      50.059650457826855
   178   1   2 -0.42 -9.5924786875954072e-10      111.73950000040091      50.049188259985009
   179   1   1  0.42      1.4497265246831625      111.73949999864502      50.059650457878789
   180   1   2 -0.42      2.1745897910162553      110.48399999713246      50.049188260417296
   181   1   1  0.42     -0.7248632605115336      112.99500000314764      50.059650457809838
   182   1   2 -0.42 -2.5702097669751626e-09      114.25049999618727      50.049188260432501
   183   1   1  0.42      1.4497265264148107      114.25049999815808      50.059650457844242
   184   1   2 -0.42      2.1745897892022867      112.99500000375826       50.04918826038476
   185   1   1  0.42    -0.72486326185507011       115.5059999995716      50.059650457847162
   186   1   2 -0.42 -2.4091179228569754e-09      116.76150000427404      50.049188260405998
   187   1   1  0.42      1.4497265270680533      116.76150000180286      50.059650457865779
   188   1   2 -0.42      2.1745897890863044      115.50599999933465      50.049188259951492
   189   1   1  0.42    -0.72486326221508124      118.01699999657697      50.059650457819458
   190   1   2 -0.42 -4.2677781534621878e-09      119.27250000014493      50.049188259956154
   191   1   1  0.42       1.449726530063457      119.27249999959406      50.059650457892722
   192   1   2 -0.42       2.174589788925386       118.0169999988557      50.049188260464369
   193   1   1  0.42    -0.72486326102598952       120.5280000022323      50.059650457816765
   194   1   2 -0.42 -2.9805296310709255e-10      121.78349999801577       50.04918826044711
   195   1   1  0.42      1.4497265259656105      121.78349999778307      50.059650457809504
   196   1   2 -0.42      2.1745897871968984      120.52800000219696      50.049188260409871
   197   1   1  0.42    -0.72486326675376711      123.03899999668144      50.059650457848484
   198   1   2 -0.42 -2.6828359127761629e-09      124.29450000710627       50.04918826046049
   199   1   1  0.42      1.4497265285692928      124.29450000825005      50.059650457902968
   200   1   2 -0.42      2.1745897931547757      123.03899999681884      50.049188259882996
   201   1   1  0.42    -0.72486326670840617      125.54999999490218      50.059650457730761
   202   1   2 -0.42 -1.1964063253258799e-08      126.80550000238897      50.049188259465041
   203   1   1  0.42      1.4497265377115947      126.80550000401404      50.059650457964942
   204   1   2 -0.42      2.1745897928206692      125.54999999222163      50.049188260619374
   205   1   1  0.42    -0.72486326480006735      128.06100000188636      50.059650457694296
   206   1   2 -0.42 -6.3223050294479333e-09      129.31649999427157       50.04918826002708
   207   1   1  0.42      1.4497265328344087      129.31649999420853      50.059650458002295
   208   1   2 -0.42      2.1745897901992173       128.0610000024968      50.049188260966694
   209   1   1  0.42    -0.72486327092442748      130.57200000313969      50.059650457766672
   210   1   2 -0.42  5.1972384521827932e-09      131.82749999905008      50.049188260308327
   211   1   1  0.42      1.4497265208261232        131.827499997562      50.059650457847717
   212   1   2 -0.42      2.1745897964353511      130.57200000256756      50.049188260218735
   213   1   1  0.42    -0.72486326700374981      133.08300000057375      50.059650457938645
   214   1   2 -0.42  2.7706240961332034e-09      134.33849999909111      50.049188260544177
   215   1   1  0.42      1.4497265240814876      134.33850000111261      50.059650457754536
   216   1   2 -0.42      2.1745897928595079      133.08300000252211      50.049188260253587
   217   1   1  0.42    -0.72486326565015113      135.59399999877806      50.059650457852868
   218   1   2 -0.42 -2.3712958178169222e-09      136.84950000661692      50.049188260563312
   219   1   1  0.42       1.449726527431269      136.84950000556853      50.059650457890115
   220   1   2 -0.42      2.1745897912169356      135.59399999573989      50.049188259761557
   221   1   1  0.42    -0.72486326148707303      138.10499999307581      50.059650457861274
   222   1   2 -0.42 -4.6682569308373925e-09      139.36050000267841      50.049188259742714
   223   1   1  0.42       1.449726530423965      139.36050000500109      50.059650457872173
   224   1   2 -0.42      2.1745897883483361      138.10499999484844       50.04918826054309
   225   1   1  0.42    -0.72486326247863464      140.61600000100489      50.059650457721446
   226   1   2 -0.42  -5.071374998728989e-09      141.87149999965015      50.049188260251768
   227   1   1  0.42      1.4497265303790914      141.87149999869598      50.059650457926821
   228   1   2 -0.42      2.1745897885218142      140.61599999753219       50.04918826055507
   229   1   1  0.42     -0.7248632656078785      143.12699999738717       50.05965045782812
   230   1   2 -0.42  3.6171742514575013e-09      144.38250000069306      50.049188260299417
   231   1   1  0.42      1.4497265234979217      144.38250000056073      50.059650457827317
   232   1   2 -0.42      2.1745897912534127      143.12700000143428       50.04918826018411
   233   1   1  0.42    -0.72486326652646127      145.63800000064981      50.059650457819771
   234   1   2 -0.42  1.1440652284461751e-09      146.89350000085341      50.049188260199671
   235   1   1  0.42      1.4497265236430739      146.89350000165771      50.059650457858886
   236   1   2 -0.42      2.1745897925074384      145.63799999736389       50.04918826030196
   237   1   1  0.42    -0.72486325982138666      148.14899999950785      50.059650457892516
   238   1   2 -0.42 -2.6111327728012136e-09      149.40450000074273      50.049188260570055
   239   1   1  0.42      1.4497265274050779      149.40450000071772      50.059650457769052
   240   1   2 -0.42      2.1745897870935984       148.1490000010956      50.049188260277312
   241   1   1  0.42    -0.72486326043411253      150.65999999792254      50.059650457846303
   242   1   2 -0.42 -2.6617215886450327e-09      151.91550000426363      50.049188260564982
   243   1   1  0.42      1.4497265276697893      151.91550000741995      50.059650457875819
   244   1   2 -0.42      2.1745897878392393      150.65999999508549      50.049188259745627
   245   1   1  0.42    -0.72486326262764733      153.17099999305643      50.059650457864421
   246   1   2 -0.42 -6.3228100967512902e-10      154.42650000596285      50.049188259739033
   247   1   1  0.42      1.4497265270161357      154.42650000141862      50.059650457860926
   248   1   2 -0.42      2.1745897878510334      153.17099999456184      50.049188260515379
   249   1   1  0.42    -0.72486326505670917      155.68199999894739      50.059650457728026
   250   1   2 -0.42 -6.2625351909406192e-10      156.93749999759436      50.049188260236491
   251   1   1  0.42      1.4497265270342188      156.93750000174799      50.059650457914692
   252   1   2 -0.42      2.1745897912826422      155.68199999880903      50.049188260567625
   253   1   1  0.42    -0.72486326672467705      158.19299999876208      50.059650457841542
   254   1   2 -0.42 -1.3329638733280309e-09      159.44850000475731      50.049188260327796
   255   1   1  0.42      1.4497265268786161      159.44849999951373       50.05965045783833
   256   1   2 -0.42      2.1745897916131698      158.19300000025478      50.049188260210784
   257   1   1  0.42    -0.72486325904254678      160.70399999939869      50.059650457820183
   258   1   2 -0.42 -4.7701549835734128e-09      161.95949999865192      50.049188260276722
   259   1   1  0.42      1.4497265291671815      161.95950000320522      50.059650457873126
   260   1   2 -0.42      2.1745897872714353      160.70399999802552      50.049188260241131
   261   1   1  0.42    -0.72486326325813744      163.21499999792337      50.059650457810214
   262   1   2 -0.42  3.0447665959390943e-09      164.47050000167985      50.049188260157315
   263   1   1  0.42       1.449726523262169      164.47049999789968      50.059650457855057
   264   1   2 -0.42      2.1745897889320012      163.21499999922631      50.049188260311503
   265   1   1  0.42    -0.72486326187957983      165.72600000026887      50.059650457918096
   266   1   2 -0.42  2.9959611298779478e-09      166.98150000034835      50.049188260537832
   267   1   1  0.42      1.4497265231907754      166.98150000185373      50.059650457741391
   268   1   2 -0.42      2.1745897879286398      165.72600000136589      50.049188260298529
   269   1   1  0.42    -0.72486326114813382      168.23699999666729      50.059650457856023
   270   1   2 -0.42 -4.4235445795223291e-10      169.49250000754424      50.049188260593446
   271   1   1  0.42      1.4497265258124892      169.49250000611542      50.059650457868422
   272   1   2 -0.42      2.1745897871508908      168.23699999511049       50.04918825970487
   273   1   1  0.42    -0.72486326163483228      170.74799999220713      50.059650457865764
   274   1   2 -0.42  -1.719427274463065e-09      172.00350000292892      50.049188259743602
   275   1   1  0.42      1.4497265287589369      172.00350000480296      50.059650457870816
   276   1   2 -0.42      2.1745897874765681      170.74799999474476      50.049188260539424
   277   1   1  0.42    -0.72486326310732796      173.25900000099887      50.059650457733852
   278   1   2 -0.42  -4.617896988704655e-09      174.51450000003967      50.049188260227481
   279   1   1  0.42      1.4497265294728816      174.51449999945643      50.059650457928825
   280   1   2 -0.42      2.1745897886091048      173.25899999739985      50.049188260597333
   281   1   1  0.42    -0.72486326577362026      175.76999999773506      50.059650457813056
   282   1   2 -0.42  1.0877551344266707e-09      177.02550000092776      50.049188260286655
   283   1   1  0.42      1.4497265243791293      177.02550000116392      50.059650457859831
   284   1   2 -0.42      2.1745897929371596      175.76999999979873      50.049188260202918
   285   1   1  0.42    -0.72486326783266619      178.28099999973054      50.059650457819238
   286   1   2 -0.42  8.7849124956995244e-10      179.53650000023617       50.04918826019393
   287   1   1  0.42       1.449726526183762      179.53650000065122      50.059650457864294
   288   1   2 -0.42      2.1745897936417706      178.28099999898336       50.04918826029531
   289   1   1  0.42    -0.72486326192954054      180.79200000068846      50.059650457915858
   290   1   2 -0.42  5.8961597518520784e-10      182.04750000043114       50.04918826056646
   291   1   1  0.42      1.4497265276030817      182.04750000019723      50.059650457743096
   292   1   2 -0.42      2.1745897859489975       180.7920000010771      50.049188260261054
   293   1   1  0.42    -0.72486326222955433      183.30299999716448      50.059650457868813
   294   1   2 -0.42  2.8534327399694019e-10      184.55850000503369       50.04918826057537
   295   1   1  0.42      1.4497265265784258      184.55850000656378      50.059650457874426
   296   1   2 -0.42      2.1745897864691339      183.30299999599254      50.049188259737889
   297   1   1  0.42    -0.72486326198622053      185.81399999383845      50.059650457879911
   298   1   2 -0.42 -3.9196264732807849e-10       187.0695000044262      50.049188259767021
   299   1   1  0.42      1.4497265250633613      187.06950000302515      50.059650457850339
   300   1   2 -0.42       2.174589787655349      185.81399999427066      50.049188260538976
   301   1   1  0.42     -0.7248632627860685      188.32499999883038      50.059650457716899
   302   1   2 -0.42 -2.0677421599489938e-09      189.58050000068653      50.049188260252542
   303   1   1  0.42      1.4497265256121283      189.58050000004513      50.059650457934424
   304   1   2 -0.42      2.1745897911024032      188.32499999822863      50.049188260535097
   305   1   1  0.42    -0.72486326540694435      190.83599999755413      50.059650457822194
   306   1   2 -0.42 -1.4460279694580409e-09      192.09150000173733      50.049188260284005
   307   1   1  0.42      1.4497265283259479      192.09150000245953      50.059650457831118
   308   1   2 -0.42      2.1745897923843973      190.83600000039871      50.049188260218394
   309   1   1  0.42    -0.72486326060542883      193.34700000021888      50.059650457833385
   310   1   2 -0.42 -3.9808849566219877e-09      194.60250000098151      50.049188260249203
   311   1   1  0.42       1.449726530473292      194.60250000097858      50.059650457850537
   312   1   2 -0.42      2.1745897853760683      193.34699999789186      50.049188260252151
   313   1   1  0.42    -0.72486326264621503      195.85799999776299      50.059650457815486
   314   1   2 -0.42  1.6008084888246641e-09      197.11350000040832      50.049188260208197
   315   1   1  0.42      1.4497265240358705       197.1135000011765      50.059650457855668
   316   1   2 -0.42      2.1745897886309944      195.85799999798493      50.049188260294386
   317   1   1  0.42    -0.72486326286585412      198.36900000051799      50.059650457905633
   318   1   2 -0.42  4.7297457922584229e-10      199.62450000023026      50.049188260538791
   319   1   1  0.42      1.4497265252027109      199.62450000153851      50.059650457755552