LAMMPS (29 Aug 2024)
OMP_NUM_THREADS environment is not set. Defaulting to 1 thread. (src/comm.cpp:98)
  using 1 OpenMP thread(s) per MPI task
read_restart lammps.restart
Reading restart file ...
  restart file = 29 Aug 2024, LAMMPS = 29 Aug 2024
WARNING: Restart file used different # of processors: 12 vs. 1 (src/read_restart.cpp:628)
  restoring atom style full from restart
  orthogonal box = (0 0 -100) to (4.3491796 502.2 100)
  1 by 1 by 1 MPI processor grid
  pair style hybrid/overlay stores no restart info
  1600 atoms
Finding 1-2 1-3 1-4 neighbors ...
  special bond factors lj:    0        0        0       
  special bond factors coul:  0        0        0       
     0 = max # of 1-2 neighbors
     0 = max # of 1-3 neighbors
     0 = max # of 1-4 neighbors
     1 = max # of special neighbors
  special bonds CPU = 0.000 seconds
  read_restart CPU = 0.003 seconds
write_data  tmp1D_2.lammps noinit
