
1600 atoms 
2 atom types
0 4.349179577805451 xlo xhi
0 502.20000000000005 ylo yhi
-100 100 zlo zhi

Masses

1 10.811
2 14.007

Atoms # full

1 1 1 0.42 -0.7248632629675752 0.0 50.0
2 1 2 -0.42 1.1102230246251565e-16 1.2555 50.0
3 1 1 0.42 1.4497265259351502 1.2555 50.0
4 1 2 -0.42 2.1745897889027255 0.0 50.0
5 1 1 0.42 -0.7321483208868473 2.511 50.0
6 1 2 -0.42 -0.007285057919272031 3.7665 50.0
7 1 1 0.42 1.4424414680158781 3.7665 50.0
8 1 2 -0.42 2.1673047309834534 2.511 50.0
9 1 1 0.42 -0.7394333788061194 5.022 50.0
10 1 2 -0.42 -0.014570115838544062 6.2775 50.0
11 1 1 0.42 1.435156410096606 6.2775 50.0
12 1 2 -0.42 2.1600196730641814 5.022 50.0
13 1 1 0.42 -0.7467184367253915 7.533 50.0
14 1 2 -0.42 -0.021855173757816204 8.7885 50.0
15 1 1 0.42 1.427871352177334 8.7885 50.0
16 1 2 -0.42 2.1527346151449094 7.533000000000001 50.0
17 1 1 0.42 -0.7540034946446637 10.044 50.0
18 1 2 -0.42 -0.029140231677088346 11.2995 50.0
19 1 1 0.42 1.4205862942580618 11.2995 50.0
20 1 2 -0.42 2.1454495572256373 10.044 50.0
21 1 1 0.42 -0.7612885525639358 12.555 50.0
22 1 2 -0.42 -0.03642528959636049 13.8105 50.0
23 1 1 0.42 1.4133012363387896 13.8105 50.0
24 1 2 -0.42 2.138164499306365 12.555 50.0
25 1 1 0.42 -0.7685736104832079 15.066 50.0
26 1 2 -0.42 -0.04371034751563263 16.3215 50.0
27 1 1 0.42 1.4060161784195175 16.3215 50.0
28 1 2 -0.42 2.130879441387093 15.066 50.0
29 1 1 0.42 -0.77585866840248 17.577 50.0
30 1 2 -0.42 -0.05099540543490466 18.832500000000003 50.0
31 1 1 0.42 1.3987311205002455 18.832500000000003 50.0
32 1 2 -0.42 2.123594383467821 17.577 50.0
33 1 1 0.42 -0.7831437263217521 20.088 50.0
34 1 2 -0.42 -0.058280463354176804 21.343500000000002 50.0
35 1 1 0.42 1.3914460625809735 21.343500000000002 50.0
36 1 2 -0.42 2.116309325548549 20.088 50.0
37 1 1 0.42 -0.7904287842410241 22.599 50.0
38 1 2 -0.42 -0.06556552127344883 23.8545 50.0
39 1 1 0.42 1.3841610046617014 23.8545 50.0
40 1 2 -0.42 2.1090242676292767 22.599 50.0
41 1 1 0.42 -0.7977138421602963 25.11 50.0
42 1 2 -0.42 -0.07285057919272098 26.3655 50.0
43 1 1 0.42 1.3768759467424292 26.3655 50.0
44 1 2 -0.42 2.1017392097100043 25.11 50.0
45 1 1 0.42 -0.8049989000795684 27.621000000000002 50.0
46 1 2 -0.42 -0.08013563711199312 28.876500000000004 50.0
47 1 1 0.42 1.369590888823157 28.876500000000004 50.0
48 1 2 -0.42 2.0944541517907322 27.621000000000002 50.0
49 1 1 0.42 -0.8122839579988406 30.132 50.0
50 1 2 -0.42 -0.08742069503126526 31.387500000000003 50.0
51 1 1 0.42 1.362305830903885 31.387500000000003 50.0
52 1 2 -0.42 2.08716909387146 30.132 50.0
53 1 1 0.42 -0.8195690159181126 32.643 50.0
54 1 2 -0.42 -0.09470575295053729 33.8985 50.0
55 1 1 0.42 1.3550207729846129 33.8985 50.0
56 1 2 -0.42 2.079884035952188 32.643 50.0
57 1 1 0.42 -0.8268540738373847 35.154 50.0
58 1 2 -0.42 -0.10199081086980943 36.4095 50.0
59 1 1 0.42 1.3477357150653408 36.4095 50.0
60 1 2 -0.42 2.072598978032916 35.154 50.0
61 1 1 0.42 -0.8341391317566569 37.665 50.0
62 1 2 -0.42 -0.10927586878908158 38.9205 50.0
63 1 1 0.42 1.3404506571460686 38.9205 50.0
64 1 2 -0.42 2.0653139201136437 37.665 50.0
65 1 1 0.42 -0.841424189675929 40.176 50.0
66 1 2 -0.42 -0.11656092670835372 41.4315 50.0
67 1 1 0.42 1.3331655992267963 41.4315 50.0
68 1 2 -0.42 2.0580288621943716 40.176 50.0
69 1 1 0.42 -0.848709247595201 42.687000000000005 50.0
70 1 2 -0.42 -0.12384598462762575 43.9425 50.0
71 1 1 0.42 1.3258805413075243 43.9425 50.0
72 1 2 -0.42 2.0507438042750996 42.687000000000005 50.0
73 1 1 0.42 -0.8559943055144732 45.198 50.0
74 1 2 -0.42 -0.1311310425468979 46.4535 50.0
75 1 1 0.42 1.3185954833882523 46.4535 50.0
76 1 2 -0.42 2.0434587463558276 45.198 50.0
77 1 1 0.42 -0.8632793634337452 47.709 50.0
78 1 2 -0.42 -0.13841610046616992 48.9645 50.0
79 1 1 0.42 1.3113104254689802 48.9645 50.0
80 1 2 -0.42 2.0361736884365556 47.709 50.0
81 1 1 0.42 -0.8705644213530174 50.22 50.0
82 1 2 -0.42 -0.14570115838544206 51.4755 50.0
83 1 1 0.42 1.3040253675497082 51.4755 50.0
84 1 2 -0.42 2.0288886305172835 50.22 50.0
85 1 1 0.42 -0.8778494792722895 52.731 50.0
86 1 2 -0.42 -0.1529862163047142 53.9865 50.0
87 1 1 0.42 1.296740309630436 53.9865 50.0
88 1 2 -0.42 2.0216035725980115 52.731 50.0
89 1 1 0.42 -0.8851345371915617 55.242000000000004 50.0
90 1 2 -0.42 -0.16027127422398635 56.4975 50.0
91 1 1 0.42 1.2894552517111637 56.4975 50.0
92 1 2 -0.42 2.014318514678739 55.242000000000004 50.0
93 1 1 0.42 -0.8924195951108338 57.753 50.0
94 1 2 -0.42 -0.1675563321432585 59.0085 50.0
95 1 1 0.42 1.2821701937918917 59.0085 50.0
96 1 2 -0.42 2.007033456759467 57.753 50.0
97 1 1 0.42 -0.8997046530301058 60.264 50.0
98 1 2 -0.42 -0.17484139006253052 61.5195 50.0
99 1 1 0.42 1.2748851358726196 61.5195 50.0
100 1 2 -0.42 1.999748398840195 60.264 50.0
101 1 1 0.42 -0.906989710949378 62.775000000000006 50.0
102 1 2 -0.42 -0.18212644798180266 64.0305 50.0
103 1 1 0.42 1.2676000779533476 64.0305 50.0
104 1 2 -0.42 1.992463340920923 62.775000000000006 50.0
105 1 1 0.42 -0.9142747688686501 65.286 50.0
106 1 2 -0.42 -0.1894115059010748 66.5415 50.0
107 1 1 0.42 1.2603150200340754 66.5415 50.0
108 1 2 -0.42 1.9851782830016507 65.286 50.0
109 1 1 0.42 -0.9215598267879223 67.797 50.0
110 1 2 -0.42 -0.19669656382034695 69.0525 50.0
111 1 1 0.42 1.253029962114803 69.0525 50.0
112 1 2 -0.42 1.9778932250823784 67.797 50.0
113 1 1 0.42 -0.9288448847071943 70.308 50.0
114 1 2 -0.42 -0.20398162173961898 71.5635 50.0
115 1 1 0.42 1.245744904195531 71.5635 50.0
116 1 2 -0.42 1.9706081671631064 70.308 50.0
117 1 1 0.42 -0.9361299426264664 72.819 50.0
118 1 2 -0.42 -0.21126667965889112 74.0745 50.0
119 1 1 0.42 1.238459846276259 74.0745 50.0
120 1 2 -0.42 1.9633231092438344 72.819 50.0
121 1 1 0.42 -0.9434150005457386 75.33 50.0
122 1 2 -0.42 -0.21855173757816326 76.5855 50.0
123 1 1 0.42 1.231174788356987 76.5855 50.0
124 1 2 -0.42 1.9560380513245623 75.33 50.0
125 1 1 0.42 -0.9507000584650107 77.84100000000001 50.0
126 1 2 -0.42 -0.2258367954974354 79.0965 50.0
127 1 1 0.42 1.2238897304377148 79.0965 50.0
128 1 2 -0.42 1.94875299340529 77.84100000000001 50.0
129 1 1 0.42 -0.9579851163842829 80.352 50.0
130 1 2 -0.42 -0.23312185341670755 81.6075 50.0
131 1 1 0.42 1.2166046725184425 81.6075 50.0
132 1 2 -0.42 1.9414679354860178 80.352 50.0
133 1 1 0.42 -0.9652701743035549 82.863 50.0
134 1 2 -0.42 -0.24040691133597958 84.1185 50.0
135 1 1 0.42 1.2093196145991705 84.1185 50.0
136 1 2 -0.42 1.9341828775667458 82.863 50.0
137 1 1 0.42 -0.9725552322228269 85.37400000000001 50.0
138 1 2 -0.42 -0.2476919692552516 86.62950000000001 50.0
139 1 1 0.42 1.2020345566798984 86.62950000000001 50.0
140 1 2 -0.42 1.9268978196474738 85.37400000000001 50.0
141 1 1 0.42 -0.9798402901420991 87.885 50.0
142 1 2 -0.42 -0.25497702717452375 89.1405 50.0
143 1 1 0.42 1.1947494987606264 89.1405 50.0
144 1 2 -0.42 1.9196127617282017 87.885 50.0
145 1 1 0.42 -0.9871253480613713 90.396 50.0
146 1 2 -0.42 -0.262262085093796 91.6515 50.0
147 1 1 0.42 1.1874644408413542 91.6515 50.0
148 1 2 -0.42 1.9123277038089295 90.396 50.0
149 1 1 0.42 -0.9944104059806433 92.90700000000001 50.0
150 1 2 -0.42 -0.26954714301306804 94.16250000000001 50.0
151 1 1 0.42 1.1801793829220821 94.16250000000001 50.0
152 1 2 -0.42 1.9050426458896574 92.90700000000001 50.0
153 1 1 0.42 -1.0016954638999154 95.418 50.0
154 1 2 -0.42 -0.27683220093234007 96.6735 50.0
155 1 1 0.42 1.17289432500281 96.6735 50.0
156 1 2 -0.42 1.8977575879703854 95.418 50.0
157 1 1 0.42 -1.0089805218191876 97.929 50.0
158 1 2 -0.42 -0.2841172588516123 99.1845 50.0
159 1 1 0.42 1.1656092670835378 99.1845 50.0
160 1 2 -0.42 1.8904725300511132 97.929 50.0
161 1 1 0.42 -1.0162655797384597 100.44 50.0
162 1 2 -0.42 -0.29140231677088435 101.6955 50.0
163 1 1 0.42 1.1583242091642658 101.6955 50.0
164 1 2 -0.42 1.8831874721318411 100.44 50.0
165 1 1 0.42 -1.0235506376577317 102.95100000000001 50.0
166 1 2 -0.42 -0.2986873746901564 104.2065 50.0
167 1 1 0.42 1.1510391512449938 104.2065 50.0
168 1 2 -0.42 1.875902414212569 102.95100000000001 50.0
169 1 1 0.42 -1.030835695577004 105.462 50.0
170 1 2 -0.42 -0.30597243260942864 106.7175 50.0
171 1 1 0.42 1.1437540933257215 106.7175 50.0
172 1 2 -0.42 1.8686173562932968 105.462 50.0
173 1 1 0.42 -1.038120753496276 107.973 50.0
174 1 2 -0.42 -0.31325749052870067 109.2285 50.0
175 1 1 0.42 1.1364690354064495 109.2285 50.0
176 1 2 -0.42 1.8613322983740248 107.973 50.0
177 1 1 0.42 -1.0454058114155482 110.48400000000001 50.0
178 1 2 -0.42 -0.3205425484479729 111.7395 50.0
179 1 1 0.42 1.1291839774871772 111.7395 50.0
180 1 2 -0.42 1.8540472404547526 110.48400000000001 50.0
181 1 1 0.42 -1.0526908693348203 112.995 50.0
182 1 2 -0.42 -0.32782760636724495 114.2505 50.0
183 1 1 0.42 1.1218989195679052 114.2505 50.0
184 1 2 -0.42 1.8467621825354805 112.995 50.0
185 1 1 0.42 -1.0599759272540923 115.506 50.0
186 1 2 -0.42 -0.335112664286517 116.7615 50.0
187 1 1 0.42 1.1146138616486332 116.7615 50.0
188 1 2 -0.42 1.8394771246162085 115.506 50.0
189 1 1 0.42 -1.0672609851733645 118.01700000000001 50.0
190 1 2 -0.42 -0.34239772220578923 119.27250000000001 50.0
191 1 1 0.42 1.107328803729361 119.27250000000001 50.0
192 1 2 -0.42 1.8321920666969362 118.01700000000001 50.0
193 1 1 0.42 -1.0745460430926366 120.528 50.0
194 1 2 -0.42 -0.34968278012506127 121.7835 50.0
195 1 1 0.42 1.100043745810089 121.7835 50.0
196 1 2 -0.42 1.8249070087776642 120.528 50.0
197 1 1 0.42 -1.0818311010119086 123.039 50.0
198 1 2 -0.42 -0.3569678380443333 124.2945 50.0
199 1 1 0.42 1.0927586878908169 124.2945 50.0
200 1 2 -0.42 1.8176219508583922 123.039 50.0
201 1 1 0.42 -1.0891161589311809 125.55000000000001 50.0
202 1 2 -0.42 -0.36425289596360555 126.80550000000001 50.0
203 1 1 0.42 1.0854736299715446 126.80550000000001 50.0
204 1 2 -0.42 1.81033689293912 125.55000000000001 50.0
205 1 1 0.42 -1.0964012168504529 128.061 50.0
206 1 2 -0.42 -0.3715379538828776 129.31650000000002 50.0
207 1 1 0.42 1.0781885720522726 129.31650000000002 50.0
208 1 2 -0.42 1.803051835019848 128.061 50.0
209 1 1 0.42 -1.103686274769725 130.572 50.0
210 1 2 -0.42 -0.3788230118021496 131.82750000000001 50.0
211 1 1 0.42 1.0709035141330006 131.82750000000001 50.0
212 1 2 -0.42 1.7957667771005759 130.572 50.0
213 1 1 0.42 -1.1109713326889972 133.083 50.0
214 1 2 -0.42 -0.38610806972142186 134.3385 50.0
215 1 1 0.42 1.0636184562137283 134.3385 50.0
216 1 2 -0.42 1.7884817191813036 133.083 50.0
217 1 1 0.42 -1.1182563906082692 135.594 50.0
218 1 2 -0.42 -0.3933931276406939 136.8495 50.0
219 1 1 0.42 1.0563333982944563 136.8495 50.0
220 1 2 -0.42 1.7811966612620316 135.594 50.0
221 1 1 0.42 -1.1255414485275415 138.10500000000002 50.0
222 1 2 -0.42 -0.40067818555996615 139.36050000000003 50.0
223 1 1 0.42 1.049048340375184 139.36050000000003 50.0
224 1 2 -0.42 1.7739116033427593 138.10500000000002 50.0
225 1 1 0.42 -1.1328265064468135 140.616 50.0
226 1 2 -0.42 -0.4079632434792382 141.87150000000003 50.0
227 1 1 0.42 1.041763282455912 141.87150000000003 50.0
228 1 2 -0.42 1.7666265454234873 140.616 50.0
229 1 1 0.42 -1.1401115643660855 143.127 50.0
230 1 2 -0.42 -0.4152483013985102 144.38250000000002 50.0
231 1 1 0.42 1.03447822453664 144.38250000000002 50.0
232 1 2 -0.42 1.7593414875042153 143.127 50.0
233 1 1 0.42 -1.1473966222853575 145.638 50.0
234 1 2 -0.42 -0.42253335931778224 146.89350000000002 50.0
235 1 1 0.42 1.027193166617368 146.89350000000002 50.0
236 1 2 -0.42 1.7520564295849432 145.638 50.0
237 1 1 0.42 -1.1546816802046298 148.149 50.0
238 1 2 -0.42 -0.4298184172370545 149.4045 50.0
239 1 1 0.42 1.0199081086980957 149.4045 50.0
240 1 2 -0.42 1.744771371665671 148.149 50.0
241 1 1 0.42 -1.161966738123902 150.66 50.0
242 1 2 -0.42 -0.43710347515632675 151.9155 50.0
243 1 1 0.42 1.0126230507788234 151.9155 50.0
244 1 2 -0.42 1.7374863137463987 150.66 50.0
245 1 1 0.42 -1.169251796043174 153.17100000000002 50.0
246 1 2 -0.42 -0.4443885330755988 154.42650000000003 50.0
247 1 1 0.42 1.0053379928595514 154.42650000000003 50.0
248 1 2 -0.42 1.7302012558271267 153.17100000000002 50.0
249 1 1 0.42 -1.1765368539624461 155.68200000000002 50.0
250 1 2 -0.42 -0.4516735909948708 156.93750000000003 50.0
251 1 1 0.42 0.9980529349402794 156.93750000000003 50.0
252 1 2 -0.42 1.7229161979078547 155.68200000000002 50.0
253 1 1 0.42 -1.1838219118817181 158.193 50.0
254 1 2 -0.42 -0.45895864891414284 159.44850000000002 50.0
255 1 1 0.42 0.9907678770210073 159.44850000000002 50.0
256 1 2 -0.42 1.7156311399885826 158.193 50.0
257 1 1 0.42 -1.1911069698009904 160.704 50.0
258 1 2 -0.42 -0.4662437068334151 161.95950000000002 50.0
259 1 1 0.42 0.9834828191017351 161.95950000000002 50.0
260 1 2 -0.42 1.7083460820693104 160.704 50.0
261 1 1 0.42 -1.1983920277202624 163.215 50.0
262 1 2 -0.42 -0.4735287647526871 164.47050000000002 50.0
263 1 1 0.42 0.976197761182463 164.47050000000002 50.0
264 1 2 -0.42 1.7010610241500383 163.215 50.0
265 1 1 0.42 -1.2056770856395347 165.726 50.0
266 1 2 -0.42 -0.4808138226719594 166.9815 50.0
267 1 1 0.42 0.9689127032631908 166.9815 50.0
268 1 2 -0.42 1.693775966230766 165.726 50.0
269 1 1 0.42 -1.2129621435588067 168.237 50.0
270 1 2 -0.42 -0.4880988805912314 169.4925 50.0
271 1 1 0.42 0.9616276453439188 169.4925 50.0
272 1 2 -0.42 1.686490908311494 168.237 50.0
273 1 1 0.42 -1.2202472014780787 170.74800000000002 50.0
274 1 2 -0.42 -0.49538393851050344 172.00350000000003 50.0
275 1 1 0.42 0.9543425874246467 172.00350000000003 50.0
276 1 2 -0.42 1.679205850392222 170.74800000000002 50.0
277 1 1 0.42 -1.227532259397351 173.25900000000001 50.0
278 1 2 -0.42 -0.5026689964297757 174.51450000000003 50.0
279 1 1 0.42 0.9470575295053745 174.51450000000003 50.0
280 1 2 -0.42 1.6719207924729498 173.25900000000001 50.0
281 1 1 0.42 -1.234817317316623 175.77 50.0
282 1 2 -0.42 -0.5099540543490477 177.02550000000002 50.0
283 1 1 0.42 0.9397724715861024 177.02550000000002 50.0
284 1 2 -0.42 1.6646357345536777 175.77 50.0
285 1 1 0.42 -1.242102375235895 178.281 50.0
286 1 2 -0.42 -0.5172391122683198 179.53650000000002 50.0
287 1 1 0.42 0.9324874136668304 179.53650000000002 50.0
288 1 2 -0.42 1.6573506766344057 178.281 50.0
289 1 1 0.42 -1.2493874331551673 180.792 50.0
290 1 2 -0.42 -0.524524170187592 182.0475 50.0
291 1 1 0.42 0.9252023557475582 182.0475 50.0
292 1 2 -0.42 1.6500656187151335 180.792 50.0
293 1 1 0.42 -1.2566724910744393 183.303 50.0
294 1 2 -0.42 -0.531809228106864 184.5585 50.0
295 1 1 0.42 0.9179172978282861 184.5585 50.0
296 1 2 -0.42 1.6427805607958614 183.303 50.0
297 1 1 0.42 -1.2639575489937114 185.81400000000002 50.0
298 1 2 -0.42 -0.5390942860261361 187.06950000000003 50.0
299 1 1 0.42 0.9106322399090141 187.06950000000003 50.0
300 1 2 -0.42 1.6354955028765894 185.81400000000002 50.0
301 1 1 0.42 -1.2712426069129836 188.32500000000002 50.0
302 1 2 -0.42 -0.5463793439454083 189.58050000000003 50.0
303 1 1 0.42 0.9033471819897418 189.58050000000003 50.0
304 1 2 -0.42 1.6282104449573171 188.32500000000002 50.0
305 1 1 0.42 -1.2785276648322557 190.836 50.0
306 1 2 -0.42 -0.5536644018646804 192.09150000000002 50.0
307 1 1 0.42 0.8960621240704698 192.09150000000002 50.0
308 1 2 -0.42 1.6209253870380451 190.836 50.0
309 1 1 0.42 -1.285812722751528 193.347 50.0
310 1 2 -0.42 -0.5609494597839526 194.60250000000002 50.0
311 1 1 0.42 0.8887770661511976 194.60250000000002 50.0
312 1 2 -0.42 1.6136403291187729 193.347 50.0
313 1 1 0.42 -1.2930977806708 195.858 50.0
314 1 2 -0.42 -0.5682345177032246 197.11350000000002 50.0
315 1 1 0.42 0.8814920082319255 197.11350000000002 50.0
316 1 2 -0.42 1.6063552711995008 195.858 50.0
317 1 1 0.42 -1.300382838590072 198.369 50.0
318 1 2 -0.42 -0.5755195756224967 199.6245 50.0
319 1 1 0.42 0.8742069503126535 199.6245 50.0
320 1 2 -0.42 1.5990702132802288 198.369 50.0
321 1 1 0.42 -1.3076678965093442 200.88 50.0
322 1 2 -0.42 -0.5828046335417689 202.1355 50.0
323 1 1 0.42 0.8669218923933812 202.1355 50.0
324 1 2 -0.42 1.5917851553609565 200.88 50.0
325 1 1 0.42 -1.3149529544286163 203.39100000000002 50.0
326 1 2 -0.42 -0.590089691461041 204.64650000000003 50.0
327 1 1 0.42 0.8596368344741092 204.64650000000003 50.0
328 1 2 -0.42 1.5845000974416845 203.39100000000002 50.0
329 1 1 0.42 -1.3222380123478883 205.90200000000002 50.0
330 1 2 -0.42 -0.597374749380313 207.15750000000003 50.0
331 1 1 0.42 0.8523517765548372 207.15750000000003 50.0
332 1 2 -0.42 1.5772150395224125 205.90200000000002 50.0
333 1 1 0.42 -1.3295230702671605 208.413 50.0
334 1 2 -0.42 -0.6046598072995852 209.66850000000002 50.0
335 1 1 0.42 0.8450667186355649 209.66850000000002 50.0
336 1 2 -0.42 1.5699299816031402 208.413 50.0
337 1 1 0.42 -1.3368081281864326 210.924 50.0
338 1 2 -0.42 -0.6119448652188573 212.17950000000002 50.0
339 1 1 0.42 0.8377816607162929 212.17950000000002 50.0
340 1 2 -0.42 1.5626449236838682 210.924 50.0
341 1 1 0.42 -1.3440931861057046 213.435 50.0
342 1 2 -0.42 -0.6192299231381293 214.69050000000001 50.0
343 1 1 0.42 0.8304966027970209 214.69050000000001 50.0
344 1 2 -0.42 1.5553598657645962 213.435 50.0
345 1 1 0.42 -1.3513782440249766 215.946 50.0
346 1 2 -0.42 -0.6265149810574013 217.2015 50.0
347 1 1 0.42 0.8232115448777488 217.2015 50.0
348 1 2 -0.42 1.5480748078453241 215.946 50.0
349 1 1 0.42 -1.3586633019442491 218.45700000000002 50.0
350 1 2 -0.42 -0.6338000389766738 219.71250000000003 50.0
351 1 1 0.42 0.8159264869584764 219.71250000000003 50.0
352 1 2 -0.42 1.5407897499260517 218.45700000000002 50.0
353 1 1 0.42 -1.3659483598635211 220.96800000000002 50.0
354 1 2 -0.42 -0.6410850968959458 222.22350000000003 50.0
355 1 1 0.42 0.8086414290392043 222.22350000000003 50.0
356 1 2 -0.42 1.5335046920067796 220.96800000000002 50.0
357 1 1 0.42 -1.3732334177827932 223.479 50.0
358 1 2 -0.42 -0.6483701548152179 224.73450000000003 50.0
359 1 1 0.42 0.8013563711199323 224.73450000000003 50.0
360 1 2 -0.42 1.5262196340875076 223.479 50.0
361 1 1 0.42 -1.3805184757020652 225.99 50.0
362 1 2 -0.42 -0.6556552127344899 227.24550000000002 50.0
363 1 1 0.42 0.7940713132006603 227.24550000000002 50.0
364 1 2 -0.42 1.5189345761682356 225.99 50.0
365 1 1 0.42 -1.3878035336213372 228.501 50.0
366 1 2 -0.42 -0.6629402706537619 229.75650000000002 50.0
367 1 1 0.42 0.7867862552813882 229.75650000000002 50.0
368 1 2 -0.42 1.5116495182489635 228.501 50.0
369 1 1 0.42 -1.3950885915406097 231.012 50.0
370 1 2 -0.42 -0.6702253285730344 232.2675 50.0
371 1 1 0.42 0.7795011973621158 232.2675 50.0
372 1 2 -0.42 1.504364460329691 231.012 50.0
373 1 1 0.42 -1.4023736494598817 233.52300000000002 50.0
374 1 2 -0.42 -0.6775103864923064 234.77850000000004 50.0
375 1 1 0.42 0.7722161394428437 234.77850000000004 50.0
376 1 2 -0.42 1.497079402410419 233.52300000000002 50.0
377 1 1 0.42 -1.4096587073791538 236.03400000000002 50.0
378 1 2 -0.42 -0.6847954444115785 237.28950000000003 50.0
379 1 1 0.42 0.7649310815235717 237.28950000000003 50.0
380 1 2 -0.42 1.489794344491147 236.03400000000002 50.0
381 1 1 0.42 -1.4169437652984258 238.54500000000002 50.0
382 1 2 -0.42 -0.6920805023308505 239.80050000000003 50.0
383 1 1 0.42 0.7576460236042997 239.80050000000003 50.0
384 1 2 -0.42 1.482509286571875 238.54500000000002 50.0
385 1 1 0.42 -1.4242288232176978 241.056 50.0
386 1 2 -0.42 -0.6993655602501225 242.31150000000002 50.0
387 1 1 0.42 0.7503609656850276 242.31150000000002 50.0
388 1 2 -0.42 1.475224228652603 241.056 50.0
389 1 1 0.42 -1.43151388113697 243.567 50.0
390 1 2 -0.42 -0.7066506181693948 244.82250000000002 50.0
391 1 1 0.42 0.7430759077657554 244.82250000000002 50.0
392 1 2 -0.42 1.4679391707333307 243.567 50.0
393 1 1 0.42 -1.4387989390562421 246.078 50.0
394 1 2 -0.42 -0.7139356760886668 247.33350000000002 50.0
395 1 1 0.42 0.7357908498464834 247.33350000000002 50.0
396 1 2 -0.42 1.4606541128140587 246.078 50.0
397 1 1 0.42 -1.4460839969755144 248.589 50.0
398 1 2 -0.42 -0.7212207340079391 249.8445 50.0
399 1 1 0.42 0.7285057919272111 249.8445 50.0
400 1 2 -0.42 1.4533690548947864 248.589 50.0
401 1 1 0.42 -1.4460839969755144 251.10000000000002 50.0
402 1 2 -0.42 -0.7212207340079391 252.35550000000003 50.0
403 1 1 0.42 0.7285057919272111 252.35550000000003 50.0
404 1 2 -0.42 1.4533690548947864 251.10000000000002 50.0
405 1 1 0.42 -1.4387989390562421 253.61100000000002 50.0
406 1 2 -0.42 -0.7139356760886668 254.86650000000003 50.0
407 1 1 0.42 0.7357908498464834 254.86650000000003 50.0
408 1 2 -0.42 1.4606541128140587 253.61100000000002 50.0
409 1 1 0.42 -1.43151388113697 256.122 50.0
410 1 2 -0.42 -0.7066506181693948 257.3775 50.0
411 1 1 0.42 0.7430759077657554 257.3775 50.0
412 1 2 -0.42 1.4679391707333307 256.122 50.0
413 1 1 0.42 -1.4242288232176978 258.63300000000004 50.0
414 1 2 -0.42 -0.6993655602501225 259.8885 50.0
415 1 1 0.42 0.7503609656850276 259.8885 50.0
416 1 2 -0.42 1.475224228652603 258.63300000000004 50.0
417 1 1 0.42 -1.4169437652984258 261.144 50.0
418 1 2 -0.42 -0.6920805023308505 262.3995 50.0
419 1 1 0.42 0.7576460236042997 262.3995 50.0
420 1 2 -0.42 1.482509286571875 261.144 50.0
421 1 1 0.42 -1.4096587073791538 263.65500000000003 50.0
422 1 2 -0.42 -0.6847954444115785 264.9105 50.0
423 1 1 0.42 0.7649310815235717 264.9105 50.0
424 1 2 -0.42 1.489794344491147 263.65500000000003 50.0
425 1 1 0.42 -1.4023736494598817 266.166 50.0
426 1 2 -0.42 -0.6775103864923064 267.4215 50.0
427 1 1 0.42 0.7722161394428437 267.4215 50.0
428 1 2 -0.42 1.497079402410419 266.166 50.0
429 1 1 0.42 -1.3950885915406097 268.677 50.0
430 1 2 -0.42 -0.6702253285730344 269.9325 50.0
431 1 1 0.42 0.7795011973621158 269.9325 50.0
432 1 2 -0.42 1.504364460329691 268.677 50.0
433 1 1 0.42 -1.3878035336213372 271.188 50.0
434 1 2 -0.42 -0.6629402706537619 272.4435 50.0
435 1 1 0.42 0.7867862552813882 272.4435 50.0
436 1 2 -0.42 1.5116495182489635 271.188 50.0
437 1 1 0.42 -1.3805184757020652 273.699 50.0
438 1 2 -0.42 -0.6556552127344899 274.9545 50.0
439 1 1 0.42 0.7940713132006603 274.9545 50.0
440 1 2 -0.42 1.5189345761682356 273.699 50.0
441 1 1 0.42 -1.3732334177827932 276.21000000000004 50.0
442 1 2 -0.42 -0.6483701548152179 277.4655 50.0
443 1 1 0.42 0.8013563711199323 277.4655 50.0
444 1 2 -0.42 1.5262196340875076 276.21000000000004 50.0
445 1 1 0.42 -1.3659483598635211 278.721 50.0
446 1 2 -0.42 -0.6410850968959458 279.9765 50.0
447 1 1 0.42 0.8086414290392043 279.9765 50.0
448 1 2 -0.42 1.5335046920067796 278.721 50.0
449 1 1 0.42 -1.3586633019442491 281.232 50.0
450 1 2 -0.42 -0.6338000389766738 282.4875 50.0
451 1 1 0.42 0.8159264869584764 282.4875 50.0
452 1 2 -0.42 1.5407897499260517 281.232 50.0
453 1 1 0.42 -1.3513782440249766 283.743 50.0
454 1 2 -0.42 -0.6265149810574013 284.9985 50.0
455 1 1 0.42 0.8232115448777488 284.9985 50.0
456 1 2 -0.42 1.5480748078453241 283.743 50.0
457 1 1 0.42 -1.3440931861057046 286.254 50.0
458 1 2 -0.42 -0.6192299231381293 287.5095 50.0
459 1 1 0.42 0.8304966027970209 287.5095 50.0
460 1 2 -0.42 1.5553598657645962 286.254 50.0
461 1 1 0.42 -1.3368081281864326 288.765 50.0
462 1 2 -0.42 -0.6119448652188573 290.02049999999997 50.0
463 1 1 0.42 0.8377816607162929 290.02049999999997 50.0
464 1 2 -0.42 1.5626449236838682 288.765 50.0
465 1 1 0.42 -1.3295230702671605 291.276 50.0
466 1 2 -0.42 -0.6046598072995852 292.5315 50.0
467 1 1 0.42 0.8450667186355649 292.5315 50.0
468 1 2 -0.42 1.5699299816031402 291.276 50.0
469 1 1 0.42 -1.3222380123478883 293.78700000000003 50.0
470 1 2 -0.42 -0.597374749380313 295.0425 50.0
471 1 1 0.42 0.8523517765548372 295.0425 50.0
472 1 2 -0.42 1.5772150395224125 293.78700000000003 50.0
473 1 1 0.42 -1.3149529544286163 296.298 50.0
474 1 2 -0.42 -0.590089691461041 297.5535 50.0
475 1 1 0.42 0.8596368344741092 297.5535 50.0
476 1 2 -0.42 1.5845000974416845 296.298 50.0
477 1 1 0.42 -1.307667896509344 298.809 50.0
478 1 2 -0.42 -0.5828046335417687 300.0645 50.0
479 1 1 0.42 0.8669218923933815 300.0645 50.0
480 1 2 -0.42 1.5917851553609568 298.809 50.0
481 1 1 0.42 -1.300382838590072 301.32 50.0
482 1 2 -0.42 -0.5755195756224967 302.5755 50.0
483 1 1 0.42 0.8742069503126535 302.5755 50.0
484 1 2 -0.42 1.5990702132802288 301.32 50.0
485 1 1 0.42 -1.2930977806708 303.831 50.0
486 1 2 -0.42 -0.5682345177032246 305.0865 50.0
487 1 1 0.42 0.8814920082319255 305.0865 50.0
488 1 2 -0.42 1.6063552711995008 303.831 50.0
489 1 1 0.42 -1.285812722751528 306.34200000000004 50.0
490 1 2 -0.42 -0.5609494597839526 307.5975 50.0
491 1 1 0.42 0.8887770661511976 307.5975 50.0
492 1 2 -0.42 1.6136403291187729 306.34200000000004 50.0
493 1 1 0.42 -1.2785276648322557 308.853 50.0
494 1 2 -0.42 -0.5536644018646804 310.1085 50.0
495 1 1 0.42 0.8960621240704698 310.1085 50.0
496 1 2 -0.42 1.6209253870380451 308.853 50.0
497 1 1 0.42 -1.2712426069129836 311.36400000000003 50.0
498 1 2 -0.42 -0.5463793439454083 312.6195 50.0
499 1 1 0.42 0.9033471819897418 312.6195 50.0
500 1 2 -0.42 1.6282104449573171 311.36400000000003 50.0
501 1 1 0.42 -1.2639575489937114 313.875 50.0
502 1 2 -0.42 -0.5390942860261361 315.1305 50.0
503 1 1 0.42 0.9106322399090141 315.1305 50.0
504 1 2 -0.42 1.6354955028765894 313.875 50.0
505 1 1 0.42 -1.2566724910744393 316.386 50.0
506 1 2 -0.42 -0.531809228106864 317.6415 50.0
507 1 1 0.42 0.9179172978282861 317.6415 50.0
508 1 2 -0.42 1.6427805607958614 316.386 50.0
509 1 1 0.42 -1.2493874331551673 318.897 50.0
510 1 2 -0.42 -0.524524170187592 320.1525 50.0
511 1 1 0.42 0.9252023557475582 320.1525 50.0
512 1 2 -0.42 1.6500656187151335 318.897 50.0
513 1 1 0.42 -1.242102375235895 321.408 50.0
514 1 2 -0.42 -0.5172391122683198 322.6635 50.0
515 1 1 0.42 0.9324874136668304 322.6635 50.0
516 1 2 -0.42 1.6573506766344057 321.408 50.0
517 1 1 0.42 -1.234817317316623 323.91900000000004 50.0
518 1 2 -0.42 -0.5099540543490477 325.1745 50.0
519 1 1 0.42 0.9397724715861024 325.1745 50.0
520 1 2 -0.42 1.6646357345536777 323.91900000000004 50.0
521 1 1 0.42 -1.2275322593973508 326.43 50.0
522 1 2 -0.42 -0.5026689964297755 327.6855 50.0
523 1 1 0.42 0.9470575295053747 327.6855 50.0
524 1 2 -0.42 1.67192079247295 326.43 50.0
525 1 1 0.42 -1.2202472014780787 328.94100000000003 50.0
526 1 2 -0.42 -0.49538393851050344 330.1965 50.0
527 1 1 0.42 0.9543425874246467 330.1965 50.0
528 1 2 -0.42 1.679205850392222 328.94100000000003 50.0
529 1 1 0.42 -1.2129621435588067 331.452 50.0
530 1 2 -0.42 -0.4880988805912314 332.7075 50.0
531 1 1 0.42 0.9616276453439188 332.7075 50.0
532 1 2 -0.42 1.686490908311494 331.452 50.0
533 1 1 0.42 -1.2056770856395347 333.963 50.0
534 1 2 -0.42 -0.4808138226719594 335.2185 50.0
535 1 1 0.42 0.9689127032631908 335.2185 50.0
536 1 2 -0.42 1.693775966230766 333.963 50.0
537 1 1 0.42 -1.1983920277202624 336.474 50.0
538 1 2 -0.42 -0.4735287647526871 337.7295 50.0
539 1 1 0.42 0.976197761182463 337.7295 50.0
540 1 2 -0.42 1.7010610241500383 336.474 50.0
541 1 1 0.42 -1.1911069698009902 338.985 50.0
542 1 2 -0.42 -0.4662437068334149 340.2405 50.0
543 1 1 0.42 0.9834828191017353 340.2405 50.0
544 1 2 -0.42 1.7083460820693106 338.985 50.0
545 1 1 0.42 -1.1838219118817184 341.49600000000004 50.0
546 1 2 -0.42 -0.45895864891414306 342.7515 50.0
547 1 1 0.42 0.9907678770210071 342.7515 50.0
548 1 2 -0.42 1.7156311399885824 341.49600000000004 50.0
549 1 1 0.42 -1.1765368539624461 344.007 50.0
550 1 2 -0.42 -0.4516735909948708 345.2625 50.0
551 1 1 0.42 0.9980529349402794 345.2625 50.0
552 1 2 -0.42 1.7229161979078547 344.007 50.0
553 1 1 0.42 -1.169251796043174 346.51800000000003 50.0
554 1 2 -0.42 -0.4443885330755988 347.7735 50.0
555 1 1 0.42 1.0053379928595514 347.7735 50.0
556 1 2 -0.42 1.7302012558271267 346.51800000000003 50.0
557 1 1 0.42 -1.1619667381239018 349.029 50.0
558 1 2 -0.42 -0.4371034751563265 350.2845 50.0
559 1 1 0.42 1.0126230507788236 350.2845 50.0
560 1 2 -0.42 1.737486313746399 349.029 50.0
561 1 1 0.42 -1.1546816802046298 351.54 50.0
562 1 2 -0.42 -0.4298184172370545 352.7955 50.0
563 1 1 0.42 1.0199081086980957 352.7955 50.0
564 1 2 -0.42 1.744771371665671 351.54 50.0
565 1 1 0.42 -1.1473966222853578 354.05100000000004 50.0
566 1 2 -0.42 -0.42253335931778246 355.3065 50.0
567 1 1 0.42 1.0271931666173677 355.3065 50.0
568 1 2 -0.42 1.752056429584943 354.05100000000004 50.0
569 1 1 0.42 -1.1401115643660855 356.562 50.0
570 1 2 -0.42 -0.4152483013985102 357.8175 50.0
571 1 1 0.42 1.03447822453664 357.8175 50.0
572 1 2 -0.42 1.7593414875042153 356.562 50.0
573 1 1 0.42 -1.1328265064468135 359.07300000000004 50.0
574 1 2 -0.42 -0.4079632434792382 360.3285 50.0
575 1 1 0.42 1.041763282455912 360.3285 50.0
576 1 2 -0.42 1.7666265454234873 359.07300000000004 50.0
577 1 1 0.42 -1.1255414485275412 361.584 50.0
578 1 2 -0.42 -0.4006781855599659 362.8395 50.0
579 1 1 0.42 1.0490483403751842 362.8395 50.0
580 1 2 -0.42 1.7739116033427595 361.584 50.0
581 1 1 0.42 -1.1182563906082692 364.095 50.0
582 1 2 -0.42 -0.3933931276406939 365.3505 50.0
583 1 1 0.42 1.0563333982944563 365.3505 50.0
584 1 2 -0.42 1.7811966612620316 364.095 50.0
585 1 1 0.42 -1.1109713326889972 366.606 50.0
586 1 2 -0.42 -0.38610806972142186 367.8615 50.0
587 1 1 0.42 1.0636184562137283 367.8615 50.0
588 1 2 -0.42 1.7884817191813036 366.606 50.0
589 1 1 0.42 -1.103686274769725 369.117 50.0
590 1 2 -0.42 -0.3788230118021496 370.3725 50.0
591 1 1 0.42 1.0709035141330006 370.3725 50.0
592 1 2 -0.42 1.7957667771005759 369.117 50.0
593 1 1 0.42 -1.0964012168504529 371.62800000000004 50.0
594 1 2 -0.42 -0.3715379538828776 372.8835 50.0
595 1 1 0.42 1.0781885720522726 372.8835 50.0
596 1 2 -0.42 1.803051835019848 371.62800000000004 50.0
597 1 1 0.42 -1.0891161589311809 374.139 50.0
598 1 2 -0.42 -0.36425289596360555 375.3945 50.0
599 1 1 0.42 1.0854736299715446 375.3945 50.0
600 1 2 -0.42 1.81033689293912 374.139 50.0
601 1 1 0.42 -1.0818311010119086 376.65000000000003 50.0
602 1 2 -0.42 -0.3569678380443333 377.9055 50.0
603 1 1 0.42 1.0927586878908169 377.9055 50.0
604 1 2 -0.42 1.8176219508583922 376.65000000000003 50.0
605 1 1 0.42 -1.0745460430926363 379.161 50.0
606 1 2 -0.42 -0.34968278012506104 380.4165 50.0
607 1 1 0.42 1.1000437458100891 380.4165 50.0
608 1 2 -0.42 1.8249070087776644 379.161 50.0
609 1 1 0.42 -1.0672609851733645 381.672 50.0