LAMMPS data file via write_data, version 29 Aug 2024, timestep = 1046, units = metal

1600 atoms
2 atom types

0 4.349179577805451 xlo xhi
0 502.20000000000005 ylo yhi
-100 100 zlo zhi

Masses

1 10.811
2 14.0067

Atoms # full

936 2 2 -0.42 3.665850977686545 82.85816270886325 53.27946586168513 0 0 0
2 1 2 -0.42 4.348762764210088 1.255367845348544 50.0506589121959 -1 0 0
3 1 1 0.42 1.4492854357148424 1.2553666683548634 50.06112271603781 0 0 0
933 2 1 0.42 0.7664197276803063 82.85901064267011 53.26811277210772 0 0 0
5 1 1 0.42 3.6238696205762744 2.5107777577566184 50.0611232949825 -1 0 0
6 1 2 -0.42 4.348748723258238 3.766191519435314 50.05065987393584 -1 0 0
7 1 1 0.42 1.4492713894450049 3.7661888840067057 50.06112374712654 0 0 0
8 1 2 -0.42 2.1741673619413744 2.5107796673024274 50.05065947199307 0 0 0
9 1 1 0.42 3.623849822713979 5.021599863206811 50.06112401704504 -1 0 0
10 1 2 -0.42 4.348723140404627 6.277015164585545 50.05065947764871 -1 0 0
11 1 1 0.42 1.449245788079796 6.277010945043301 50.06112353077045 0 0 0
12 1 2 -0.42 2.174147622423658 5.021603350092405 50.05066017884471 0 0 0
13 1 1 0.42 3.623818253701011 7.532421966171603 50.06112180795504 -1 0 0
14 1 2 -0.42 4.34868537334353 8.78783891475279 50.05065534235722 -1 0 0
15 1 1 0.42 1.4492079456629066 8.787832999419269 50.06111924052505 0 0 0
16 1 2 -0.42 2.1741160191990114 7.532427067639091 50.05065800667572 0 0 0
932 2 2 -0.42 3.660001512786863 80.34723744216046 53.279558419382894 0 0 0
802 2 2 -0.42 1.4501427851778055 1.25537621773806 53.28336970307323 0 0 0
803 2 1 0.42 2.89984748139509 1.2553773539783564 53.27197659142316 0 0 0
931 2 1 0.42 2.9379756297289634 81.60348702974863 53.26814741947875 0 0 0
805 2 1 0.42 0.7252633605711053 2.5107956869851846 53.2719766828718 0 0 0
806 2 2 -0.42 1.450156994236068 3.7662112792524605 53.283369770742325 0 0 0
807 2 1 0.42 2.8998616980370504 3.7662139772967937 53.271976737352816 0 0 0
808 2 2 -0.42 3.62473823228077 2.5107937281762838 53.28336976273998 0 0 0
809 2 1 0.42 0.7252833680359874 5.02163233739049 53.27197665650738 0 0 0
810 2 2 -0.42 1.45018278594727 6.2770464652948945 53.28336965149968 0 0 0
811 2 1 0.42 2.8998875679441944 6.27705072094113 53.27197659149689 0 0 0
812 2 2 -0.42 3.6247582251738355 5.021628810095584 53.28336975701003 0 0 0
813 2 1 0.42 0.7253152241100336 7.532469272813815 53.271975912959064 0 0 0
814 2 2 -0.42 1.4502208766444724 8.787881845715615 53.28336694664443 0 0 0
815 2 1 0.42 2.89992567511522 8.787887859944245 53.27197392053006 0 0 0
816 2 2 -0.42 3.6247900015362386 7.5324641577132025 53.28336890287455 0 0 0
17 1 1 0.42 3.6237739422504944 10.043243879520421 50.06111505097403 -1 0 0
18 1 2 -0.42 4.348634359944422 11.298662597453221 50.0506454378456 -1 0 0
19 1 1 0.42 1.4491569396958175 11.298654873444272 50.06110921031679 0 0 0
20 1 2 -0.42 2.174071780879983 10.043250737726595 50.050651199030035 0 0 0
21 1 1 0.42 3.623715803740364 12.554065740158153 50.06110156567778 -1 0 0
22 1 2 -0.42 4.348568693015894 13.80948645972484 50.05062717708612 -1 0 0
23 1 1 0.42 1.4490911948366696 13.809476558218071 50.0610910271447 0 0 0
24 1 2 -0.42 2.174013708006379 12.554074486799895 50.050637418153904 0 0 0
25 1 1 0.42 3.623642038242074 15.064887456723575 50.06107767975081 -1 0 0
26 1 2 -0.42 4.348486432152009 16.320310449559877 50.05059654216338 -1 0 0
27 1 1 0.42 1.4490088795356804 16.320298289151946 50.061060536465455 0 0 0
28 1 2 -0.42 2.1739399703370426 15.06489836008922 50.05061365143401 0 0 0
29 1 1 0.42 3.6235506223222007 17.575709119703117 50.06103989507364 -1 0 0
32 1 2 -0.42 2.1738486308259377 17.575722502902632 50.0505759986899 0 0 0
817 2 1 0.42 0.7253598439498048 10.043306535608123 53.271970100345136 0 0 0
818 2 2 -0.42 1.4502721070199214 11.298717515844707 53.28335709263515 0 0 0
819 2 1 0.42 2.899977028564837 11.298725311713444 53.271964142530614 0 0 0
820 2 2 -0.42 3.6248345495849073 10.043299615410278 53.28336315822278 0 0 0
821 2 1 0.42 0.7254182872388167 12.554144231531636 53.27195556256035 0 0 0
822 2 2 -0.42 1.4503381066935064 13.809553340787774 53.28333718192779 0 0 0
823 2 1 0.42 2.900043087893064 13.80956331217941 53.27194417830621 0 0 0
824 2 2 -0.42 3.624892928334029 12.554135439858205 53.28334849384872 0 0 0
825 2 1 0.42 0.7254924578258233 15.064982473945989 53.271930346942995 0 0 0
826 2 2 -0.42 1.4504206814222596 16.320389649489965 53.2833066350916 0 0 0
827 2 1 0.42 2.900125773308207 16.32040186910785 53.27191362509319 0 0 0
828 2 2 -0.42 3.6249669773432482 15.064971475548244 53.28332332146693 0 0 0
829 2 1 0.42 0.725584224021371 17.575821439373836 53.27189381666916 0 0 0
832 2 2 -0.42 3.625058625610239 17.57580793236019 53.28328670669431 0 0 0
30 1 2 -0.42 4.348385444711789 18.831134664862816 50.05055174924077 -1 0 0
31 1 1 0.42 1.448907794289324 18.831119899520775 50.06101578140616 0 0 0
33 1 1 0.42 3.6234392970391283 20.08653064795802 50.06098824327377 -1 0 0
34 1 2 -0.42 4.3482631543701356 21.341959237907613 50.0504938856057 -1 0 0
35 1 1 0.42 1.448785472778005 21.341941495654066 50.060958021392345 0 0 0
36 1 2 -0.42 2.173737363895853 20.086546884544102 50.05052431309111 0 0 0
37 1 1 0.42 3.6233051548771673 22.597352278041246 50.06092453155471 -1 0 0
38 1 2 -0.42 4.3481165679465175 23.852784256931642 50.05042380748286 -1 0 0
39 1 1 0.42 1.4486387510740308 23.85276307888719 50.06088789670167 0 0 0
40 1 2 -0.42 2.1736033078854162 22.59737170299423 50.050460534609215 0 0 0
41 1 1 0.42 3.6231450200889728 25.10817383463712 50.06084797967596 -1 0 0
42 1 2 -0.42 4.347942049504411 26.363609954806996 50.050340655144176 -1 0 0
43 1 1 0.42 1.4484641897072315 26.363584797754697 50.060804724684346 0 0 0
44 1 2 -0.42 2.1734432208270307 25.10819704017377 50.05038387523371 0 0 0
45 1 1 0.42 3.6229550403999973 27.61899571376104 50.06075887035609 -1 0 0
48 1 2 -0.42 2.1732533729910877 27.619023039962126 50.05029466262503 0 0 0
830 2 2 -0.42 1.4505219846790764 18.83122632940042 53.28326355646795 0 0 0
831 2 1 0.42 2.9002272202113293 18.831241145947235 53.27187070771082 0 0 0
833 2 1 0.42 0.7256959528839513 20.086661083760365 53.27184382458569 0 0 0
834 2 2 -0.42 1.450644543009721 21.34206331304823 53.28320602771847 0 0 0
835 2 1 0.42 2.900349938092187 21.342081146255143 53.27181318725253 0 0 0
836 2 2 -0.42 3.6251702247426336 20.086644735188276 53.28323666251538 0 0 0
837 2 1 0.42 0.7258304599704994 22.597501485311014 53.271779026473446 0 0 0
838 2 2 -0.42 1.4507914579198764 23.85290069963564 53.2831345381941 0 0 0
839 2 1 0.42 2.900496979946632 23.852922021487526 53.27174180269626 0 0 0
840 2 2 -0.42 3.6253045529474606 22.597481981773853 53.28317196728936 0 0 0
841 2 1 0.42 0.7259909888113095 25.10834279732566 53.27170190586835 0 0 0
842 2 2 -0.42 1.4509662335853557 26.363738526047356 53.28305220835214 0 0 0
843 2 1 0.42 2.900672039870718 26.36376384364514 53.27165958875472 0 0 0
844 2 2 -0.42 3.6254649042945664 25.10831950358852 53.2830947357677 0 0 0
845 2 1 0.42 0.7261814004750913 27.619185134515355 53.27161455815706 0 0 0
848 2 2 -0.42 3.6256550955901963 27.61915769865705 53.283007332676284 0 0 0
46 1 2 -0.42 4.34773570557406 28.874436447801262 50.050246435854405 -1 0 0
47 1 1 0.42 1.4482577723201593 28.874406659411598 50.06071053292346 0 0 0
49 1 1 0.42 3.6227307359490313 30.129817721063727 50.060660335277824 -1 0 0
50 1 2 -0.42 4.34749220332706 31.385263950277956 50.050144273396015 -1 0 0
51 1 1 0.42 1.4480141438938994 31.38522884734872 50.060608603108115 0 0 0
52 1 2 -0.42 2.173029111545405 30.129850069735227 50.05019627241101 0 0 0
53 1 1 0.42 3.6224663953372462 32.64063996326053 50.06055516687563 -1 0 0
54 1 2 -0.42 4.347205667157505 33.89609240876903 50.05003588746322 -1 0 0
55 1 1 0.42 1.4477274629701662 33.89605110258519 50.06050008644576 0 0 0
56 1 2 -0.42 2.172764967409437 32.640677995992824 50.050090901514345 0 0 0
57 1 1 0.42 3.6221555080560344 35.151462305720365 50.060443547713525 -1 0 0
58 1 2 -0.42 4.346868873018437 36.40692219677371 50.04992133282879 -1 0 0
59 1 1 0.42 1.4473904755359093 36.40687360213478 50.060385653358374 0 0 0
60 1 2 -0.42 2.1724542243266693 35.15150713813597 50.04997924656347 0 0 0
846 2 2 -0.42 1.4511729030666176 28.87457685762394 53.28296013384518 0 0 0
847 2 1 0.42 2.9008789098761762 28.87460678937031 53.27156746875488 0 0 0
849 2 1 0.42 0.7264062117897563 30.130028765515483 53.27151810765256 0 0 0
850 2 2 -0.42 1.4514166889250308 31.385415860454177 53.28285939759398 0 0 0
851 2 1 0.42 2.901123042157098 31.385451138230906 53.271466869525064 0 0 0
852 2 2 -0.42 3.6258795971059663 30.12999624333153 53.28291073114639 0 0 0
853 2 1 0.42 0.726671043293799 32.64087384827529 53.2714140451865 0 0 0
854 2 2 -0.42 1.451703654921115 33.89625549185049 53.28275214451404 0 0 0
855 2 1 0.42 2.9014103342233915 33.89629696547054 53.27135979364988 0 0 0
856 2 2 -0.42 3.6261441838931185 32.640835582148846 53.28280653623459 0 0 0
857 2 1 0.42 0.726982626834457 35.151720685867005 53.2713040872537 0 0 0
858 2 2 -0.42 1.4520409506836611 36.40709601761556 53.28263929827847 0 0 0
859 2 1 0.42 2.9017480134017113 36.40714488598926 53.27124700661708 0 0 0
860 2 2 -0.42 3.62645532865823 35.15167561847968 53.28269648769016 0 0 0
61 1 1 0.42 3.6217904090961994 37.66228495399222 50.06032600533673 -1 0 0
62 1 2 -0.42 4.346473592969072 38.91775344866313 50.04980013166828 -1 0 0
63 1 1 0.42 1.4469950354903085 38.91769642698257 50.060264839019794 0 0 0
64 1 2 -0.42 2.1720893105077534 37.662337600680864 50.04986165613695 0 0 0
65 1 1 0.42 3.6213621849556534 40.17310793682236 50.06020153180401 -1 0 0
66 1 2 -0.42 4.34601015329443 41.42858646104202 50.04967175299983 -1 0 0
67 1 1 0.42 1.4465313418816512 41.428519545400086 50.06013626329647 0 0 0
68 1 2 -0.42 2.171661287348929 40.17316974227986 50.04973723628887 0 0 0
69 1 1 0.42 3.6208602432113515 42.68393127303406 50.06006876855875 -1 0 0
70 1 2 -0.42 4.345467118655158 43.93942156843518 50.04953447618683 -1 0 0
71 1 1 0.42 1.4459880835924412 43.93934318149101 50.05999921205093 0 0 0
72 1 2 -0.42 2.1711595546953637 42.68400370746483 50.04960420082138 0 0 0
73 1 1 0.42 3.6202723055977817 45.194755198045875 50.05992688516751 -1 0 0
74 1 2 -0.42 4.344831217715578 46.45025921293247 50.04938681760798 -1 0 0
75 1 1 0.42 1.4453518816739628 46.45016738339306 50.05985168311351 0 0 0
76 1 2 -0.42 2.170571905164115 45.19484005109587 50.04946212650047 0 0 0
861 2 1 0.42 0.7273484956226465 37.662569613536625 53.27118864304143 0 0 0
862 2 2 -0.42 1.4524368007889041 38.91793765478562 53.28252117174749 0 0 0
863 2 1 0.42 2.9021443963288442 38.91799499094337 53.271129064251 0 0 0
864 2 2 -0.42 3.626820791549321 37.662516663297595 53.282580855380616 0 0 0
865 2 1 0.42 0.7277776696680409 40.17342104394996 53.27106785698568 0 0 0
866 2 2 -0.42 1.4529009434370777 41.42878047002299 53.28239695041524 0 0 0
867 2 1 0.42 2.9026090464388963 41.42884775877309 53.27100521517369 0 0 0
868 2 2 -0.42 3.6272494288961235 40.17335893586392 53.28245994506547 0 0 0
869 2 1 0.42 0.7282807456388842 42.68427524711317 53.27094049788685 0 0 0
870 2 2 -0.42 1.4534446551314129 43.93962473831578 53.282264791605215 0 0 0
871 2 1 0.42 2.9031534312043257 43.93970355907357 53.27087332130232 0 0 0
872 2 2 -0.42 3.627751845357522 42.684202392111715 53.28233233284465 0 0 0
873 2 1 0.42 0.728869714651989 45.195132669584176 53.27080358030523 0 0 0
874 2 2 -0.42 1.4540811730731973 46.45047052339313 53.2821227321412 0 0 0
875 2 1 0.42 2.903790736518366 46.45056282006883 53.270731456957364 0 0 0
876 2 2 -0.42 3.628340204601203 45.19504741853602 53.282195208676164 0 0 0
77 1 1 0.42 3.6195840303232116 47.70557975631188 50.05977313439156 -1 0 0
78 1 2 -0.42 4.344087173628603 48.96109978983977 50.04922582180376 -1 0 0
79 1 1 0.42 1.4446074799950406 48.96099238125977 50.05969073082294 0 0 0
80 1 2 -0.42 2.1698839221523913 47.705679132580904 50.04930837188047 0 0 0
81 1 1 0.42 3.6187790360868783 50.21640516321895 50.059604251805396 -1 0 0
82 1 2 -0.42 4.343217005588983 51.47194395226114 50.04904849827889 -1 0 0
83 1 1 0.42 1.4437369725376847 51.471818240339964 50.05951368967552 0 0 0
84 1 2 -0.42 2.169079295821882 50.21652136120641 50.04913911242195 0 0 0
85 1 1 0.42 3.6178377804829203 52.72723167421988 50.05941889271645 -1 0 0
86 1 2 -0.42 4.342199917048179 53.982792270309794 50.0488549645457 -1 0 0
87 1 1 0.42 1.4427194422107545 53.98264531449195 50.05932026528172 0 0 0
88 1 2 -0.42 2.1681384440920253 52.72736750641077 50.04895375799756 0 0 0
89 1 1 0.42 3.6167378424259153 55.23805934061012 50.05921741184354 -1 0 0
92 1 2 -0.42 2.167038965346414 55.238218178344006 50.048752087272604 0 0 0
877 2 1 0.42 0.7295592350704196 47.70599401232136 53.27065644343741 0 0 0
878 2 2 -0.42 1.4548260547474652 48.96131816613875 53.28196998921672 0 0 0
879 2 1 0.42 2.904536413347666 48.96142616599689 53.27057908227023 0 0 0
880 2 2 -0.42 3.629028887863994 47.70589410336123 53.282047593734426 0 0 0
881 2 1 0.42 0.7303655313710714 50.2168595190899 53.270498935046426 0 0 0
882 2 2 -0.42 1.4556968394513463 51.47216782941221 53.281806214872 0 0 0
883 2 1 0.42 2.9054082138398702 51.47229417826978 53.270415794278136 0 0 0
884 2 2 -0.42 3.629834229201741 50.2167427174343 53.281889661620745 0 0 0
885 2 1 0.42 0.7313081302885959 52.727730138720815 53.2703293906053 0 0 0
886 2 2 -0.42 1.4567147319799005 53.98301985018712 53.28162931802743 0 0 0
887 2 1 0.42 2.90642723031535 53.98316757545076 53.270239517838135 0 0 0
888 2 2 -0.42 3.630775763724057 52.727593562530934 53.28171960003632 0 0 0
889 2 1 0.42 0.7324096356018382 55.23860650518875 53.27014614433773 0 0 0
892 2 2 -0.42 3.631876034734536 55.238446814714024 53.28153565827864 0 0 0
90 1 2 -0.42 4.341011382719114 56.49364542125921 50.04864456878412 -1 0 0
91 1 1 0.42 1.4415304142808965 56.493473749456264 50.059110111074176 0 0 0
93 1 1 0.42 3.6154527707994593 57.74888859452222 50.05899791420995 -1 0 0
94 1 2 -0.42 4.339623305326967 59.00450448037957 50.04841513926326 -1 0 0
95 1 1 0.42 1.4401418032211866 59.00430399876178 50.05888088022505 0 0 0
96 1 2 -0.42 2.1657543900817116 57.749074175103026 50.048532189776715 0 0 0
97 1 1 0.42 3.6139524400296525 60.25971986347541 50.05875881567984 -1 0 0
98 1 2 -0.42 4.338002955191809 61.51537053000731 50.048166304442425 -1 0 0
99 1 1 0.42 1.4385208754434191 61.51513641143083 50.05863221985333 0 0 0
100 1 2 -0.42 2.1642546396192706 60.25993658994807 50.048293104808145 0 0 0
101 1 1 0.42 3.6122013104030173 62.770553551930355 50.058500942164805 -1 0 0
102 1 2 -0.42 4.336112264055103 64.02624456765044 50.047898684668226 -1 0 0
103 1 1 0.42 1.4366294856548065 64.0259714079555 50.0583649497596 0 0 0
104 1 2 -0.42 2.1625041759706356 62.77080648235822 50.04803491732574 0 0 0
890 2 2 -0.42 1.4579039355634587 56.49387459471237 53.28143907869168 0 0 0
891 2 1 0.42 2.907617827835979 56.49404712371573 53.27004990905544 0 0 0
893 2 1 0.42 0.7336963257663055 57.749489611531885 53.26995117004611 0 0 0
894 2 2 -0.42 1.4592927305248278 59.00473237243151 53.28123860535201 0 0 0
895 2 1 0.42 2.90900813798819 59.00493394094048 53.269850454516465 0 0 0
896 2 2 -0.42 3.6331613003863183 57.749303042929064 53.28134005005922 0 0 0
897 2 1 0.42 0.7351983992804002 60.26038036857837 53.26974776087968 0 0 0
898 2 2 -0.42 1.4609136824877802 61.51559368466331 53.28103049751827 0 0 0
899 2 1 0.42 2.9106309156485266 61.51582906540232 53.26964340640169 0 0 0
900 2 2 -0.42 3.634661719753267 60.26016253937219 53.281135570868265 0 0 0
901 2 1 0.42 0.7369514364815134 62.771280064850814 53.26953733487197 0 0 0
902 2 2 -0.42 1.4628051573169956 64.02645893358236 53.28081578657526 0 0 0
903 2 1 0.42 2.9125244057621504 64.0267336014778 53.269430083577696 0 0 0
904 2 2 -0.42 3.636412868228838 62.77102580649295 53.28092388377373 0 0 0
105 1 1 0.42 3.610158737306789 65.28139002466483 50.05822361563655 -1 0 0
106 1 2 -0.42 4.3339074187201865 66.53712818127623 50.04761055028974 -1 0 0
107 1 1 0.42 1.434423922259971 66.53680953136205 50.05807683105243 0 0 0
108 1 2 -0.42 2.160462325373737 65.28168506302539 50.04775728940389 0 0 0
109 1 1 0.42 3.6077776427411066 67.79223008358642 50.057923984693474 -1 0 0
110 1 2 -0.42 4.331338317274379 69.04802272745158 50.047298251510846 -1 0 0
111 1 1 0.42 1.4318539281492755 69.04765152596623 50.05776484166743 0 0 0
112 1 2 -0.42 2.158082038169017 67.79257395905351 50.04745757472019 0 0 0
113 1 1 0.42 3.605004231147117 70.30307416365822 50.05759894564413 -1 0 0
114 1 2 -0.42 4.3283468462147185 71.55893013986359 50.0469587045156 -1 0 0
115 1 1 0.42 1.4288615230230735 71.55849801299128 50.05742543299544 0 0 0
116 1 2 -0.42 2.1553094782530144 70.30347470046135 50.047132223614604 0 0 0
117 1 1 0.42 3.601776324988172 72.81392319714504 50.057243836116164 -1 0 0
118 1 2 -0.42 4.3248666491355445 74.06985246627575 50.04658658470679 -1 0 0
119 1 1 0.42 1.425380304339764 74.06934992476778 50.057053217801496 0 0 0
120 1 2 -0.42 2.152082564911657 72.81438932701315 50.04677705056418 0 0 0
905 2 1 0.42 0.7389962502260814 65.28218990169508 53.26932193638803 0 0 0
906 2 2 -0.42 1.4650105670045679 66.53732888551092 53.280597653754725 0 0 0
907 2 1 0.42 2.914732190993915 66.53764920414052 53.26921366671299 0 0 0
908 2 2 -0.42 3.6384554226611296 65.28189329092399 53.28070697871516 0 0 0
909 2 1 0.42 0.741379646487547 67.79311159340187 53.269105754014454 0 0 0
910 2 2 -0.42 1.4675803451387128 69.04820418501006 53.28038064636686 0 0 0
911 2 1 0.42 2.91730472179996 69.04857742899814 53.26899877757014 0 0 0
912 2 2 -0.42 3.640836295694651 67.79276583797447 53.280488678238974 0 0 0
913 2 1 0.42 0.7441558317998148 70.30404695010469 53.26889325573328 0 0 0
914 2 2 -0.42 1.4705724091342365 71.55908583675095 53.28016873248916 0 0 0
915 2 1 0.42 2.9202999521450823 71.55952034326754 53.268789596309716 0 0 0
916 2 2 -0.42 3.6436094909474246 70.30364412322807 53.280273645732386 0 0 0
917 2 1 0.42 0.7473866707146836 72.81499804141481 53.268688964256704 0 0 0
918 2 2 -0.42 1.4740531707661784 74.06997477988372 53.27996701345308 0 0 0
919 2 1 0.42 2.9237843379805457 74.07048020594742 53.26859171573682 0 0 0
920 2 2 -0.42 3.6468369429890974 72.8145292933416 53.28006626791163 0 0 0
121 1 1 0.42 3.5980229595110766 75.32477823750462 50.056852891518126 -1 0 0
122 1 2 -0.42 4.3208222735802115 76.58079205150167 50.046175110454605 -1 0 0
123 1 1 0.42 1.4213348085756623 76.58020830202891 50.056641927293505 0 0 0
124 1 2 -0.42 2.148330242848302 75.32531998794741 50.046386087585745 0 0 0
125 1 1 0.42 3.593663999271542 77.83564024966303 50.056419092053574 -1 0 0
126 1 2 -0.42 4.316128546002541 79.09175139119505 50.04571677406961 -1 0 0
127 1 1 0.42 1.416639959798169 79.09107439748232 50.05618320450483 0 0 0
128 1 2 -0.42 2.14397244310239 77.83626907258503 50.04595249732643 0 0 0
129 1 1 0.42 3.5886095496980372 80.34651092514231 50.05593278664103 -1 0 0
130 1 2 -0.42 4.310690487985258 81.60273374213745 50.0452001649247 -1 0 0
131 1 1 0.42 1.4112007332437597 81.60194996964583 50.05566607450901 0 0 0
132 1 2 -0.42 2.138919138903203 80.34723948410776 50.04546645029869 0 0 0
133 1 1 0.42 3.5827588825035823 82.85739184891285 50.05538208208213 -1 0 0
136 1 2 -0.42 2.1330696556803135 82.85823451423998 50.04491627408355 0 0 0
921 2 1 0.42 0.7511434301008701 75.32596722084453 53.268498772149684 0 0 0
922 2 2 -0.42 1.4780980132591377 76.58087220392942 53.279782460887816 0 0 0
923 2 1 0.42 2.9278333659267197 76.58145940530335 53.26841164376255 0 0 0
924 2 2 -0.42 3.6505898213778614 75.32542234379109 53.279872052628185 0 0 0
925 2 1 0.42 0.7555060311652007 77.83695706283471 53.268330820262065 0 0 0
926 2 2 -0.42 1.4827920467361386 79.09177954341206 53.27962384475351 0 0 0
927 2 1 0.42 2.9325320826616075 79.09246057421275 53.268258802547244 0 0 0
928 2 2 -0.42 3.6549479812394874 77.83632456186201 53.27969899545677 0 0 0
929 2 1 0.42 0.7605646377778268 80.34797042147505 53.26819686323849 0 0 0
930 2 2 -0.42 1.4882301895225798 81.60269842549388 53.27950494421558 0 0 0
134 1 2 -0.42 4.304401436733198 84.11374230803501 50.04461391523865 -1 0 0
135 1 1 0.42 1.4049105502665904 84.11283675943135 50.05507899787623 0 0 0
137 1 1 0.42 3.575999771348746 85.36828504416039 50.05475596386973 -1 0 0
138 1 2 -0.42 4.297143785721285 86.62478081166934 50.04394745191934 -1 0 0
139 1 1 0.42 1.3976518435249792 86.6237369903977 50.054411336420536 0 0 0
140 1 2 -0.42 2.1263116330967913 85.36925759453126 50.044291466366566 0 0 0
141 1 1 0.42 3.5682094781888574 87.87919292481978 50.0540429178455 -1 0 0
142 1 2 -0.42 4.288789670198071 89.13585307901187 50.04318638089301 -1 0 0
143 1 1 0.42 1.3892968956246563 89.13465329400186 50.0536483574176 0 0 0
144 1 2 -0.42 2.1185223232970416 87.88031249317865 50.04357979227463 0 0 0
145 1 1 0.42 3.5592559841895026 90.39011841678382 50.05322602406503 -1 0 0
146 1 2 -0.42 4.279203208826122 91.64696318726457 50.0423140095149 -1 0 0
147 1 1 0.42 1.3797098839821487 91.64558865643102 50.0527733132657 0 0 0
148 1 2 -0.42 2.1095695122907263 90.39140316156589 50.04276507096817 0 0 0
149 1 1 0.42 3.5489998181659668 92.90106457444857 50.052289827659486 -1 0 0
152 1 2 -0.42 2.0993136381860094 92.9025336578302 50.04183183550209 0 0 0
934 2 2 -0.42 1.4945190595287259 84.11363056027685 53.279443321315966 0 0 0
935 2 1 0.42 2.944270546121657 84.11454182291037 53.268095217430705 0 0 0
937 2 1 0.42 0.7731838571735119 85.37008111561225 53.268098030300656 0 0 0
938 2 2 -0.42 1.5017762341676457 86.62457830176291 53.27945998835403 0 0 0
939 2 1 0.42 2.951534453787621 86.62562890270546 53.26812395289996 0 0 0
940 2 2 -0.42 3.6726086342371347 85.3691023522711 53.27944026106902 0 0 0
941 2 1 0.42 0.78097958093738 87.88118563927736 53.26817771943372 0 0 0
942 2 2 -0.42 1.5101294883658694 89.13554393470258 53.27958386582126 0 0 0
943 2 1 0.42 2.9598952080666443 89.13675178446287 53.26826339376789 0 0 0
944 2 2 -0.42 3.6803973285056557 87.88005864956801 53.279506352047555 0 0 0
945 2 1 0.42 0.7899392673409824 90.39232795970715 53.26838563202335 0 0 0
946 2 2 -0.42 1.5197147786026381 91.64653053705591 53.27985053333822 0 0 0
947 2 1 0.42 2.9694886385231736 91.64791454493101 53.2685494892109 0 0 0
948 2 2 -0.42 3.68934913332109 90.39103444977783 53.2796969492073 0 0 0
949 2 1 0.42 0.8002021591606934 92.90351206102076 53.26875932450311 0 0 0
952 2 2 -0.42 3.6996035316397156 92.90203267468368 53.280048786349774 0 0 0
150 1 2 -0.42 4.268242091258434 94.15811510161197 50.04131695894067 -1 0 0
151 1 1 0.42 1.3687487898978508 94.15654666355836 50.051773092426544 0 0 0
153 1 1 0.42 3.5372979084342138 95.41203539466179 50.05122182043228 -1 0 0
154 1 2 -0.42 4.25576307599509 96.66931280129637 50.04018291377206 -1 0 0
155 1 1 0.42 1.3562705159290616 96.667531314434 50.05063469621733 0 0 0
156 1 2 -0.42 2.087611422123518 95.41370799432407 50.04076759578043 0 0 0
157 1 1 0.42 3.5240085167737942 97.92303505500514 50.05001014823528 -1 0 0
158 1 2 -0.42 4.2416271557404 99.18055970568523 50.038900949182754 -1 0 0
159 1 1 0.42 1.3421363094290846 99.17854719439485 50.04934783897741 0 0 0
160 1 2 -0.42 2.0743207839581634 97.92492995427972 50.0395605967622 0 0 0
161 1 1 0.42 3.5089978390137784 100.4340682971874 50.04864812895259 -1 0 0
162 1 2 -0.42 4.225707934342278 101.6918583890879 50.03747136087047 -1 0 0
163 1 1 0.42 1.3262201387955574 101.68959916444318 50.047912572157 0 0 0
164 1 2 -0.42 2.0593077493380147 100.43620249594521 50.03820399902733 0 0 0
950 2 2 -0.42 1.5306741179197934 94.15754139674596 53.280297242220605 0 0 0
951 2 1 0.42 2.9804568157135924 94.15912094291416 53.26902062250901 0 0 0
953 2 1 0.42 0.8119114579990966 95.41474164134988 53.269339145019195 0 0 0
954 2 2 -0.42 1.5431508996246601 96.66858013468122 53.28096617956603 0 0 0
955 2 1 0.42 2.9929428652215604 96.67037451323263 53.26971980506731 0 0 0
956 2 2 -0.42 3.7113037956413826 95.4130570605168 53.28060123927025 0 0 0
957 2 1 0.42 0.8252090218694746 97.92601990537015 53.270169018623506 0 0 0
958 2 2 -0.42 1.5572839285007953 99.1796508572621 53.28190094761146 0 0 0
959 2 1 0.42 3.007085463552994 99.18167812322002 53.27069161104104 0 0 0
960 2 2 -0.42 3.7245918552558916 97.92411125695712 53.2813976904114 0 0 0
961 2 1 0.42 0.8402284039800558 100.43734938901159 53.27129174891395 0 0 0
962 2 2 -0.42 1.5731995880985727 101.69075799360073 53.28313770503806 0 0 0
963 2 1 0.42 3.0230106421701017 101.69303375633596 53.27197305536212 0 0 0
964 2 2 -0.42 3.73960161571316 100.43519958576488 53.28247960715315 0 0 0
165 1 1 0.42 3.492150433827717 102.94514028300934 50.047143177423145 -1 0 0
166 1 2 -0.42 4.207902841711606 104.20321022644792 50.03590837841862 -1 0 0
167 1 1 0.42 1.308419711752032 104.20069237527684 50.04634336533063 0 0 0
168 1 2 -0.42 2.042456525921936 102.94752764885229 50.036704844230506 0 0 0
169 1 1 0.42 3.4733799729677726 105.4562562150158 50.04551838959848 -1 0 0
170 1 2 -0.42 4.18814415845881 106.71461499998513 50.03424414230074 -1 0 0
171 1 1 0.42 1.2886676340293493 106.71183223254705 50.04467377258062 0 0 0
172 1 2 -0.42 2.023680420876497 105.45890602608789 50.035085881133654 0 0 0
173 1 1 0.42 3.4526411734631925 107.96742124847049 50.04381840835119 -1 0 0
174 1 2 -0.42 4.1664120772102 109.22607041495947 50.03253697153004 -1 0 0
175 1 1 0.42 1.2669443770812283 109.22302370589847 50.042962358861224 0 0 0
176 1 2 -0.42 2.002934007853562 107.9703365177287 50.03339111231817 0 0 0
177 1 1 0.42 3.4299432544395527 110.47864008121927 50.042117220871255 -1 0 0
180 1 2 -0.42 1.9802262471919931 110.4818159222022 50.031692884194506 0 0 0
965 2 1 0.42 0.8570851083683348 102.94873128535413 53.27273805616551 0 0 0
966 2 2 -0.42 1.5910005589043064 104.20190582190492 53.284700163827786 0 0 0
967 2 1 0.42 3.0408206756965934 104.20444180223956 53.273588024682404 0 0 0
968 2 2 -0.42 3.75644901607383 102.94632651269498 53.283877481558186 0 0 0
969 2 1 0.42 0.8758653503325307 105.46016515796012 53.27452241046889 0 0 0
970 2 2 -0.42 1.6107544503943594 106.71309889643054 53.286591136719785 0 0 0
971 2 1 0.42 3.0605826378508474 106.71590101864658 53.27553937651093 0 0 0
972 2 2 -0.42 3.7752205873144526 105.45749647501121 53.285605301867164 0 0 0
973 2 1 0.42 0.8966140597656204 107.97164876781909 53.27663383530193 0 0 0
974 2 2 -0.42 1.6324811993972048 109.22434112243552 53.28878266439955 0 0 0
975 2 1 0.42 3.082315872388128 109.22740785990688 53.277798285413944 0 0 0
976 2 2 -0.42 3.7959619660010575 107.96871366221808 53.28765247153538 0 0 0
977 2 1 0.42 0.91932183457658 110.48317748727777 53.279024038820374 0 0 0
980 2 2 -0.42 3.818664305098024 110.47998162094495 53.28997226890793 0 0 0
178 1 2 -0.42 4.142747068561992 111.73757206017616 50.03087249847787 -1 0 0
179 1 1 0.42 1.2432902853364394 111.73427094419866 50.04129604967135 0 0 0
181 1 1 0.42 3.4053607734509064 112.98991647662106 50.04051460602189 -1 0 0
182 1 2 -0.42 4.117260118841105 114.24911309383175 50.02936181433724 -1 0 0
183 1 1 0.42 1.2178163708985976 114.24557699360477 50.03978813728328 0 0 0
184 1 2 -0.42 1.9556316468770512 112.9933382404183 50.03009000396602 0 0 0
185 1 1 0.42 3.3790421322132653 115.50125246695049 50.039134262911624 -1 0 0
186 1 2 -0.42 4.090138341054625 116.7606843014299 50.02813530811464 -1 0 0
187 1 1 0.42 1.190709491105445 116.75694299414167 50.0385701553386 0 0 0
188 1 2 -0.42 1.9292989922627226 115.50489556026929 50.028704456857966 0 0 0
189 1 1 0.42 3.3512130935764346 118.0126483702036 50.03811242413595 -1 0 0
190 1 2 -0.42 4.061646182435772 119.27227458680994 50.02732542183031 -1 0 0
191 1 1 0.42 1.1622333434932604 119.26836810529 50.03777656988162 0 0 0
192 1 2 -0.42 1.901454456248184 118.01647774140834 50.02767039590741 0 0 0
193 1 1 0.42 3.322173303925989 120.52410179149577 50.037576270323946 -1 0 0
196 1 2 -0.42 1.8723983579396328 120.52807305194507 50.02711332604074 0 0 0
978 2 2 -0.42 1.6561406634211657 111.73563555352166 53.291209385885026 0 0 0
979 2 1 0.42 3.10597956706458 111.7389564999784 53.28029826530109 0 0 0
981 2 1 0.42 0.9439137491052466 112.9947439820935 53.281606697269744 0 0 0
982 2 2 -0.42 1.6816221061717371 114.24698399863124 53.29376725699396 0 0 0
983 2 1 0.42 3.1314624770086272 114.25053864480846 53.28293231785202 0 0 0
984 2 2 -0.42 3.843253282459721 112.99130298426549 53.29248000594911 0 0 0
985 2 1 0.42 0.9702408410036599 115.50633908151501 53.28425567480382 0 0 0
986 2 2 -0.42 1.7087386299050953 116.75838650581845 53.29631500280693 0 0 0
987 2 1 0.42 3.158577243564766 116.76214385464526 53.28555614439508 0 0 0
988 2 2 -0.42 3.869580482462998 115.502678577193 53.295052197982834 0 0 0
989 2 1 0.42 0.9980770606501994 118.01795126608747 53.28681208097051 0 0 0
990 2 2 -0.42 1.7372264278555138 119.2698409332784 53.29868751167349 0 0 0
991 2 1 0.42 3.1870598269387083 119.27375984078476 53.28800202433768 0 0 0
992 2 2 -0.42 3.89742022066387 118.01410747060015 53.29753355862152 0 0 0
993 2 1 0.42 1.027122402031783 120.52956786247782 53.2891050574901 0 0 0
996 2 2 -0.42 3.9264724677250986 120.52558628724077 53.299756170095584 0 0 0
194 1 2 -0.42 4.0321175622621945 121.7838716341472 50.027045770749965 -1 0 0
195 1 1 0.42 1.132721075598097 121.77984859715407 50.03752266897126 0 0 0
197 1 1 0.42 3.2922862845495993 123.03560764469685 50.03762464083395 -1 0 0
198 1 2 -0.42 4.001942988531763 124.2954624055611 50.02737351967627 -1 0 0
199 1 1 0.42 1.1025622278430598 124.29137795958043 50.03788673390015 0 0 0
200 1 2 -0.42 1.8424951693476395 123.03966862614453 50.02713081680769 0 0 0
201 1 1 0.42 3.261962379054766 125.54715821681297 50.03831041517765 -1 0 0
202 1 2 -0.42 3.9715491704664276 126.80703439333732 50.02833141883976 -1 0 0
203 1 1 0.42 1.0721826032714104 126.80294714815797 50.038892092931704 0 0 0
204 1 2 -0.42 1.8121562163692595 125.5512514843747 50.02777459190129 0 0 0
205 1 1 0.42 3.2316371201314005 128.05874326882213 50.03962433345309 -1 0 0
206 1 2 -0.42 3.9413757700145116 129.3185760728513 50.029877045679584 -1 0 0
207 1 1 0.42 1.042020945120614 129.31454502461838 50.04049562699919 0 0 0
208 1 2 -0.42 1.7818178990677225 128.0628096713256 50.0290358736122 0 0 0
994 2 2 -0.42 1.7667517873869798 121.78134264404189 53.3007200822242 0 0 0