
     Program PWSCF v.7.4 starts on 11Aug2025 at 13:41:59 

     This program is part of the open-source Quantum ESPRESSO suite
     for quantum simulation of materials; please cite
         "P. Giannozzi et al., J. Phys.:Condens. Matter 21 395502 (2009);
         "P. Giannozzi et al., J. Phys.:Condens. Matter 29 465901 (2017);
         "P. Giannozzi et al., J. Chem. Phys. 152 154105 (2020);
          URL http://www.quantum-espresso.org", 
     in publications or presentations arising from this work. More details at
     http://www.quantum-espresso.org/quote

     Parallel version (MPI & OpenMP), running on      80 processor cores
     Number of MPI processes:                 4
     Threads/MPI process:                    20

     MPI processes distributed on     1 nodes
     829046 MiB available memory on the printing compute node when the environment starts
 
     Waiting for input...
     Reading input from standard input

     Current dimensions of program PWSCF are:
     Max number of different atomic species (ntypx) = 10
     Max number of k-points (npk) =  40000
     Max angular momentum in pseudopotentials (lmaxx) =  4
 
     R & G space division:  proc/nbgrp/npool/nimage =       4
     Subspace diagonalization in iterative solution of the eigenvalue problem:
     a serial algorithm will be used

 
     Parallelization info
     --------------------
     sticks:   dense  smooth     PW     G-vecs:    dense   smooth      PW
     Min         127     127     37                28217    28217    4621
     Max         128     128     38                28254    28254    4668
     Sum         511     511    151               112933   112933   18619
 
     Using Slab Decomposition
 


     bravais-lattice index     =            4
     lattice parameter (alat)  =       4.6979  a.u.
     unit-cell volume          =    1083.5636 (a.u.)^3
     number of atoms/cell      =            4
     number of atomic types    =            2
     number of electrons       =        16.00
     number of Kohn-Sham states=            8
     kinetic-energy cutoff     =      84.0000  Ry
     charge density cutoff     =     336.0000  Ry
     scf convergence threshold =      1.0E-10
     mixing beta               =       0.4000
     number of iterations used =            8  plain     mixing
     Exchange-correlation= SLA  PW   NOGX NOGC
                           (   1   4   0   0   0   0   0)

     GPU acceleration is ACTIVE.  1 visible GPUs per MPI rank
     GPU-aware MPI enabled

     Message from routine print_cuda_info:
     High GPU oversubscription detected. Are you sure this is what you want?

     GPU used by master process:

        Device Number: 0
        Device name: NVIDIA GH200 120GB
        Compute capability : 90
        Ratio of single to double precision performance  : 2
        Memory Clock Rate (KHz): 2619000
        Memory Bus Width (bits): 6144
        Peak Memory Bandwidth (GB/s): ******

     celldm(1)=   4.697879  celldm(2)=   0.000000  celldm(3)=  12.067527
     celldm(4)=   0.000000  celldm(5)=   0.000000  celldm(6)=   0.000000

     crystal axes: (cart. coord. in units of alat)
               a(1) = (   1.000000   0.000000   0.000000 )  
               a(2) = (  -0.500000   0.866025   0.000000 )  
               a(3) = (   0.000000   0.000000  12.067527 )  

     reciprocal axes: (cart. coord. in units 2 pi/alat)
               b(1) = (  1.000000  0.577350 -0.000000 )  
               b(2) = (  0.000000  1.154701  0.000000 )  
               b(3) = (  0.000000 -0.000000  0.082867 )  


     PseudoPot. # 1 for B  read from file:
     ./pseudo/B.UPF
     MD5 check sum: 69d4ef3dbc0509a37f66397c3ecc5321
     Pseudo is Norm-conserving + core correction, Zval =  3.0
     Generated using ONCVPSP code by D. R. Hamann
     Using radial grid of 1498 points,  4 beta functions with: 
                l(1) =   0
                l(2) =   0
                l(3) =   1
                l(4) =   1

     PseudoPot. # 2 for N  read from file:
     ./pseudo/N.UPF
     MD5 check sum: f7cfb052850314c53fa2901765c0b356
     Pseudo is Norm-conserving + core correction, Zval =  5.0
     Generated using ONCVPSP code by D. R. Hamann
     Using radial grid of 1058 points,  4 beta functions with: 
                l(1) =   0
                l(2) =   0
                l(3) =   1
                l(4) =   1

     atomic species   valence    mass     pseudopotential
     B                 3.00    10.81100     B ( 1.00)
     N                 5.00    14.00670     N ( 1.00)

      6 Sym. Ops. (no inversion) found


                                    s                        frac. trans.

      isym =  1     identity                                     

 cryst.   s( 1) = (     1          0          0      )
                  (     0          1          0      )
                  (     0          0          1      )

 cart.    s( 1) = (  1.0000000  0.0000000  0.0000000 )
                  (  0.0000000  1.0000000  0.0000000 )
                  (  0.0000000  0.0000000  1.0000000 )


      isym =  2     120 deg rotation - cryst. axis [0,0,1]       

 cryst.   s( 2) = (     0          1          0      )
                  (    -1         -1          0      )
                  (     0          0          1      )

 cart.    s( 2) = ( -0.5000000 -0.8660254  0.0000000 )
                  (  0.8660254 -0.5000000  0.0000000 )
                  (  0.0000000  0.0000000  1.0000000 )


      isym =  3     120 deg rotation - cryst. axis [0,0,-1]      

 cryst.   s( 3) = (    -1         -1          0      )
                  (     1          0          0      )
                  (     0          0          1      )

 cart.    s( 3) = ( -0.5000000  0.8660254  0.0000000 )
                  ( -0.8660254 -0.5000000  0.0000000 )
                  (  0.0000000  0.0000000  1.0000000 )


      isym =  4     inv. 180 deg rotation - cart. axis [1,0,0]   

 cryst.   s( 4) = (    -1          0          0      )
                  (     1          1          0      )
                  (     0          0          1      )

 cart.    s( 4) = ( -1.0000000  0.0000000  0.0000000 )
                  (  0.0000000  1.0000000  0.0000000 )
                  (  0.0000000  0.0000000  1.0000000 )


      isym =  5     inv. 180 deg rotation - cryst. axis [0,1,0]  

 cryst.   s( 5) = (     1          1          0      )
                  (     0         -1          0      )
                  (     0          0          1      )

 cart.    s( 5) = (  0.5000000  0.8660254  0.0000000 )
                  (  0.8660254 -0.5000000  0.0000000 )
                  (  0.0000000  0.0000000  1.0000000 )


      isym =  6     inv. 180 deg rotation - cryst. axis [1,1,0]  

 cryst.   s( 6) = (     0         -1          0      )
                  (    -1          0          0      )
                  (     0          0          1      )

 cart.    s( 6) = (  0.5000000 -0.8660254  0.0000000 )
                  ( -0.8660254 -0.5000000  0.0000000 )
                  (  0.0000000  0.0000000  1.0000000 )


     point group C_3v (3m)  
     there are  3 classes
     the character table:

       E     2C3   3s_v 
A_1    1.00  1.00  1.00
A_2    1.00  1.00 -1.00
E      2.00 -1.00  0.00

     the symmetry operations in each class and the name of the first element:

     E        1
          identity                                               
     2C3      2    3
          120 deg rotation - cryst. axis [0,0,1]                 
     3s_v     4    5    6
          inv. 180 deg rotation - cart. axis [1,0,0]             

   Cartesian axes

     site n.     atom                  positions (alat units)
         1        B      tau(   1) = (   0.0000000   0.0000000   5.4522645  )
         2        B      tau(   2) = (  -0.0000000   0.5773503   6.6153014  )
         3        N      tau(   3) = (  -0.0000000   0.5773503   5.4506957  )
         4        N      tau(   4) = (   0.5000000   0.2886751   6.6167929  )

     -------------------------------------------------
     Parameters for Dispersion (Grimme-D2) Correction:
     -------------------------------------------------
       atom      VdW radius       C_6     

        B          2.806        108.584
        N          2.640         42.670

   Crystallographic axes

     site n.     atom                  positions (cryst. coord.)
         1        B      tau(   1) = (  0.0000000  0.0000000  0.4518129  )
         2        B      tau(   2) = (  0.3333333  0.6666667  0.5481903  )
         3        N      tau(   3) = (  0.3333333  0.6666667  0.4516829  )
         4        N      tau(   4) = (  0.6666667  0.3333333  0.5483139  )

     number of k points=    91
                       cart. coord. in units 2pi/alat
        k(    1) = (   0.0000000   0.0000000   0.0000000), wk =   0.0022222
        k(    2) = (   0.0000000   0.0384900   0.0000000), wk =   0.0133333
        k(    3) = (   0.0000000   0.0769800   0.0000000), wk =   0.0133333
        k(    4) = (   0.0000000   0.1154701   0.0000000), wk =   0.0133333
        k(    5) = (   0.0000000   0.1539601   0.0000000), wk =   0.0133333
        k(    6) = (   0.0000000   0.1924501   0.0000000), wk =   0.0133333
        k(    7) = (   0.0000000   0.2309401   0.0000000), wk =   0.0133333
        k(    8) = (   0.0000000   0.2694301   0.0000000), wk =   0.0133333
        k(    9) = (   0.0000000   0.3079201   0.0000000), wk =   0.0133333
        k(   10) = (   0.0000000   0.3464102   0.0000000), wk =   0.0133333
        k(   11) = (   0.0000000   0.3849002   0.0000000), wk =   0.0133333
        k(   12) = (   0.0000000   0.4233902   0.0000000), wk =   0.0133333
        k(   13) = (   0.0000000   0.4618802   0.0000000), wk =   0.0133333
        k(   14) = (   0.0000000   0.5003702   0.0000000), wk =   0.0133333
        k(   15) = (   0.0000000   0.5388603   0.0000000), wk =   0.0133333
        k(   16) = (   0.0000000  -0.5773503   0.0000000), wk =   0.0066667
        k(   17) = (   0.0333333   0.0577350   0.0000000), wk =   0.0133333
        k(   18) = (   0.0333333   0.0962250   0.0000000), wk =   0.0266667
        k(   19) = (   0.0333333   0.1347151   0.0000000), wk =   0.0266667
        k(   20) = (   0.0333333   0.1732051   0.0000000), wk =   0.0266667
        k(   21) = (   0.0333333   0.2116951   0.0000000), wk =   0.0266667
        k(   22) = (   0.0333333   0.2501851   0.0000000), wk =   0.0266667
        k(   23) = (   0.0333333   0.2886751   0.0000000), wk =   0.0266667
        k(   24) = (   0.0333333   0.3271652   0.0000000), wk =   0.0266667
        k(   25) = (   0.0333333   0.3656552   0.0000000), wk =   0.0266667
        k(   26) = (   0.0333333   0.4041452   0.0000000), wk =   0.0266667
        k(   27) = (   0.0333333   0.4426352   0.0000000), wk =   0.0266667
        k(   28) = (   0.0333333   0.4811252   0.0000000), wk =   0.0266667
        k(   29) = (   0.0333333   0.5196152   0.0000000), wk =   0.0266667
        k(   30) = (   0.0333333   0.5581053   0.0000000), wk =   0.0266667
        k(   31) = (   0.0666667   0.1154701   0.0000000), wk =   0.0133333
        k(   32) = (   0.0666667   0.1539601   0.0000000), wk =   0.0266667
        k(   33) = (   0.0666667   0.1924501   0.0000000), wk =   0.0266667
        k(   34) = (   0.0666667   0.2309401   0.0000000), wk =   0.0266667
        k(   35) = (   0.0666667   0.2694301   0.0000000), wk =   0.0266667
        k(   36) = (   0.0666667   0.3079201   0.0000000), wk =   0.0266667
        k(   37) = (   0.0666667   0.3464102   0.0000000), wk =   0.0266667
        k(   38) = (   0.0666667   0.3849002   0.0000000), wk =   0.0266667
        k(   39) = (   0.0666667   0.4233902   0.0000000), wk =   0.0266667
        k(   40) = (   0.0666667   0.4618802   0.0000000), wk =   0.0266667
        k(   41) = (   0.0666667   0.5003702   0.0000000), wk =   0.0266667
        k(   42) = (   0.0666667   0.5388603   0.0000000), wk =   0.0266667
        k(   43) = (   0.0666667   0.5773503   0.0000000), wk =   0.0133333
        k(   44) = (   0.1000000   0.1732051   0.0000000), wk =   0.0133333
        k(   45) = (   0.1000000   0.2116951   0.0000000), wk =   0.0266667
        k(   46) = (   0.1000000   0.2501851   0.0000000), wk =   0.0266667
        k(   47) = (   0.1000000   0.2886751   0.0000000), wk =   0.0266667
        k(   48) = (   0.1000000   0.3271652   0.0000000), wk =   0.0266667
        k(   49) = (   0.1000000   0.3656552   0.0000000), wk =   0.0266667
        k(   50) = (   0.1000000   0.4041452   0.0000000), wk =   0.0266667
        k(   51) = (   0.1000000   0.4426352   0.0000000), wk =   0.0266667
        k(   52) = (   0.1000000   0.4811252   0.0000000), wk =   0.0266667
        k(   53) = (   0.1000000   0.5196152   0.0000000), wk =   0.0266667
        k(   54) = (   0.1000000   0.5581053   0.0000000), wk =   0.0266667
        k(   55) = (   0.1333333   0.2309401   0.0000000), wk =   0.0133333
        k(   56) = (   0.1333333   0.2694301   0.0000000), wk =   0.0266667
        k(   57) = (   0.1333333   0.3079201   0.0000000), wk =   0.0266667
        k(   58) = (   0.1333333   0.3464102   0.0000000), wk =   0.0266667
        k(   59) = (   0.1333333   0.3849002   0.0000000), wk =   0.0266667
        k(   60) = (   0.1333333   0.4233902   0.0000000), wk =   0.0266667
        k(   61) = (   0.1333333   0.4618802   0.0000000), wk =   0.0266667
        k(   62) = (   0.1333333   0.5003702   0.0000000), wk =   0.0266667
        k(   63) = (   0.1333333   0.5388603   0.0000000), wk =   0.0266667
        k(   64) = (   0.1333333   0.5773503   0.0000000), wk =   0.0133333
        k(   65) = (   0.1666667   0.2886751   0.0000000), wk =   0.0133333
        k(   66) = (   0.1666667   0.3271652   0.0000000), wk =   0.0266667
        k(   67) = (   0.1666667   0.3656552   0.0000000), wk =   0.0266667
        k(   68) = (   0.1666667   0.4041452   0.0000000), wk =   0.0266667
        k(   69) = (   0.1666667   0.4426352   0.0000000), wk =   0.0266667
        k(   70) = (   0.1666667   0.4811252   0.0000000), wk =   0.0266667
        k(   71) = (   0.1666667   0.5196152   0.0000000), wk =   0.0266667
        k(   72) = (   0.1666667   0.5581053   0.0000000), wk =   0.0266667
        k(   73) = (   0.2000000   0.3464102   0.0000000), wk =   0.0133333
        k(   74) = (   0.2000000   0.3849002   0.0000000), wk =   0.0266667
        k(   75) = (   0.2000000   0.4233902   0.0000000), wk =   0.0266667
        k(   76) = (   0.2000000   0.4618802   0.0000000), wk =   0.0266667
        k(   77) = (   0.2000000   0.5003702   0.0000000), wk =   0.0266667
        k(   78) = (   0.2000000   0.5388603   0.0000000), wk =   0.0266667
        k(   79) = (   0.2000000   0.5773503   0.0000000), wk =   0.0133333
        k(   80) = (   0.2333333   0.4041452   0.0000000), wk =   0.0133333
        k(   81) = (   0.2333333   0.4426352   0.0000000), wk =   0.0266667
        k(   82) = (   0.2333333   0.4811252   0.0000000), wk =   0.0266667
        k(   83) = (   0.2333333   0.5196152   0.0000000), wk =   0.0266667
        k(   84) = (   0.2333333   0.5581053   0.0000000), wk =   0.0266667
        k(   85) = (   0.2666667   0.4618802   0.0000000), wk =   0.0133333
        k(   86) = (   0.2666667   0.5003702   0.0000000), wk =   0.0266667
        k(   87) = (   0.2666667   0.5388603   0.0000000), wk =   0.0266667
        k(   88) = (   0.2666667   0.5773503   0.0000000), wk =   0.0133333
        k(   89) = (   0.3000000   0.5196152   0.0000000), wk =   0.0133333
        k(   90) = (   0.3000000   0.5581053   0.0000000), wk =   0.0266667
        k(   91) = (   0.3333333   0.5773503   0.0000000), wk =   0.0044444

                       cryst. coord.
        k(    1) = (   0.0000000   0.0000000   0.0000000), wk =   0.0022222
        k(    2) = (   0.0000000   0.0333333   0.0000000), wk =   0.0133333
        k(    3) = (   0.0000000   0.0666667   0.0000000), wk =   0.0133333
        k(    4) = (   0.0000000   0.1000000   0.0000000), wk =   0.0133333
        k(    5) = (   0.0000000   0.1333333   0.0000000), wk =   0.0133333
        k(    6) = (   0.0000000   0.1666667   0.0000000), wk =   0.0133333
        k(    7) = (   0.0000000   0.2000000   0.0000000), wk =   0.0133333
        k(    8) = (   0.0000000   0.2333333   0.0000000), wk =   0.0133333
        k(    9) = (   0.0000000   0.2666667   0.0000000), wk =   0.0133333
        k(   10) = (   0.0000000   0.3000000   0.0000000), wk =   0.0133333
        k(   11) = (   0.0000000   0.3333333   0.0000000), wk =   0.0133333
        k(   12) = (   0.0000000   0.3666667   0.0000000), wk =   0.0133333
        k(   13) = (   0.0000000   0.4000000   0.0000000), wk =   0.0133333
        k(   14) = (   0.0000000   0.4333333   0.0000000), wk =   0.0133333
        k(   15) = (   0.0000000   0.4666667   0.0000000), wk =   0.0133333
        k(   16) = (   0.0000000  -0.5000000   0.0000000), wk =   0.0066667
        k(   17) = (   0.0333333   0.0333333   0.0000000), wk =   0.0133333
        k(   18) = (   0.0333333   0.0666667   0.0000000), wk =   0.0266667
        k(   19) = (   0.0333333   0.1000000   0.0000000), wk =   0.0266667
        k(   20) = (   0.0333333   0.1333333   0.0000000), wk =   0.0266667
        k(   21) = (   0.0333333   0.1666667   0.0000000), wk =   0.0266667
        k(   22) = (   0.0333333   0.2000000   0.0000000), wk =   0.0266667
        k(   23) = (   0.0333333   0.2333333   0.0000000), wk =   0.0266667
        k(   24) = (   0.0333333   0.2666667   0.0000000), wk =   0.0266667
        k(   25) = (   0.0333333   0.3000000   0.0000000), wk =   0.0266667
        k(   26) = (   0.0333333   0.3333333   0.0000000), wk =   0.0266667
        k(   27) = (   0.0333333   0.3666667   0.0000000), wk =   0.0266667
        k(   28) = (   0.0333333   0.4000000   0.0000000), wk =   0.0266667
        k(   29) = (   0.0333333   0.4333333   0.0000000), wk =   0.0266667
        k(   30) = (   0.0333333   0.4666667   0.0000000), wk =   0.0266667
        k(   31) = (   0.0666667   0.0666667   0.0000000), wk =   0.0133333
        k(   32) = (   0.0666667   0.1000000   0.0000000), wk =   0.0266667
        k(   33) = (   0.0666667   0.1333333   0.0000000), wk =   0.0266667
        k(   34) = (   0.0666667   0.1666667   0.0000000), wk =   0.0266667
        k(   35) = (   0.0666667   0.2000000   0.0000000), wk =   0.0266667
        k(   36) = (   0.0666667   0.2333333   0.0000000), wk =   0.0266667
        k(   37) = (   0.0666667   0.2666667   0.0000000), wk =   0.0266667
        k(   38) = (   0.0666667   0.3000000   0.0000000), wk =   0.0266667
        k(   39) = (   0.0666667   0.3333333   0.0000000), wk =   0.0266667
        k(   40) = (   0.0666667   0.3666667   0.0000000), wk =   0.0266667
        k(   41) = (   0.0666667   0.4000000   0.0000000), wk =   0.0266667
        k(   42) = (   0.0666667   0.4333333   0.0000000), wk =   0.0266667
        k(   43) = (   0.0666667   0.4666667   0.0000000), wk =   0.0133333
        k(   44) = (   0.1000000   0.1000000   0.0000000), wk =   0.0133333
        k(   45) = (   0.1000000   0.1333333   0.0000000), wk =   0.0266667
        k(   46) = (   0.1000000   0.1666667   0.0000000), wk =   0.0266667
        k(   47) = (   0.1000000   0.2000000   0.0000000), wk =   0.0266667
        k(   48) = (   0.1000000   0.2333333   0.0000000), wk =   0.0266667
        k(   49) = (   0.1000000   0.2666667   0.0000000), wk =   0.0266667
        k(   50) = (   0.1000000   0.3000000   0.0000000), wk =   0.0266667
        k(   51) = (   0.1000000   0.3333333   0.0000000), wk =   0.0266667
        k(   52) = (   0.1000000   0.3666667   0.0000000), wk =   0.0266667
        k(   53) = (   0.1000000   0.4000000   0.0000000), wk =   0.0266667
        k(   54) = (   0.1000000   0.4333333   0.0000000), wk =   0.0266667
        k(   55) = (   0.1333333   0.1333333   0.0000000), wk =   0.0133333
        k(   56) = (   0.1333333   0.1666667   0.0000000), wk =   0.0266667
        k(   57) = (   0.1333333   0.2000000   0.0000000), wk =   0.0266667
        k(   58) = (   0.1333333   0.2333333   0.0000000), wk =   0.0266667
        k(   59) = (   0.1333333   0.2666667   0.0000000), wk =   0.0266667
        k(   60) = (   0.1333333   0.3000000   0.0000000), wk =   0.0266667
        k(   61) = (   0.1333333   0.3333333   0.0000000), wk =   0.0266667
        k(   62) = (   0.1333333   0.3666667   0.0000000), wk =   0.0266667
        k(   63) = (   0.1333333   0.4000000   0.0000000), wk =   0.0266667
        k(   64) = (   0.1333333   0.4333333   0.0000000), wk =   0.0133333
        k(   65) = (   0.1666667   0.1666667   0.0000000), wk =   0.0133333
        k(   66) = (   0.1666667   0.2000000   0.0000000), wk =   0.0266667
        k(   67) = (   0.1666667   0.2333333   0.0000000), wk =   0.0266667
        k(   68) = (   0.1666667   0.2666667   0.0000000), wk =   0.0266667
        k(   69) = (   0.1666667   0.3000000   0.0000000), wk =   0.0266667
        k(   70) = (   0.1666667   0.3333333   0.0000000), wk =   0.0266667
        k(   71) = (   0.1666667   0.3666667   0.0000000), wk =   0.0266667
        k(   72) = (   0.1666667   0.4000000   0.0000000), wk =   0.0266667
        k(   73) = (   0.2000000   0.2000000   0.0000000), wk =   0.0133333
        k(   74) = (   0.2000000   0.2333333   0.0000000), wk =   0.0266667
        k(   75) = (   0.2000000   0.2666667   0.0000000), wk =   0.0266667
        k(   76) = (   0.2000000   0.3000000   0.0000000), wk =   0.0266667
        k(   77) = (   0.2000000   0.3333333   0.0000000), wk =   0.0266667
        k(   78) = (   0.2000000   0.3666667   0.0000000), wk =   0.0266667
        k(   79) = (   0.2000000   0.4000000   0.0000000), wk =   0.0133333
        k(   80) = (   0.2333333   0.2333333   0.0000000), wk =   0.0133333
        k(   81) = (   0.2333333   0.2666667   0.0000000), wk =   0.0266667
        k(   82) = (   0.2333333   0.3000000   0.0000000), wk =   0.0266667
        k(   83) = (   0.2333333   0.3333333   0.0000000), wk =   0.0266667
        k(   84) = (   0.2333333   0.3666667   0.0000000), wk =   0.0266667
        k(   85) = (   0.2666667   0.2666667   0.0000000), wk =   0.0133333
        k(   86) = (   0.2666667   0.3000000   0.0000000), wk =   0.0266667
        k(   87) = (   0.2666667   0.3333333   0.0000000), wk =   0.0266667
        k(   88) = (   0.2666667   0.3666667   0.0000000), wk =   0.0133333
        k(   89) = (   0.3000000   0.3000000   0.0000000), wk =   0.0133333
        k(   90) = (   0.3000000   0.3333333   0.0000000), wk =   0.0266667
        k(   91) = (   0.3333333   0.3333333   0.0000000), wk =   0.0044444

     Dense  grid:   112933 G-vectors     FFT dimensions: (  27,  27, 360)

     Dynamical RAM for                 wfc:       0.43 MB

     Dynamical RAM for     wfc (w. buffer):      39.54 MB

     Dynamical RAM for           str. fact:       0.86 MB

     Dynamical RAM for           local pot:       0.00 MB

     Dynamical RAM for          nlocal pot:       1.72 MB

     Dynamical RAM for                qrad:       0.84 MB

     Dynamical RAM for          rho,v,vnew:       2.79 MB

     Dynamical RAM for               rhoin:       0.93 MB

     Dynamical RAM for            rho*nmix:       6.89 MB

     Dynamical RAM for           G-vectors:       1.83 MB

     Dynamical RAM for          h,s,v(r/c):       0.01 MB

     Dynamical RAM for          <psi|beta>:       0.00 MB

     Dynamical RAM for                 psi:       0.86 MB

     Dynamical RAM for                hpsi:       0.86 MB

     Dynamical RAM for      wfcinit/wfcrot:       0.86 MB

     Estimated static dynamical RAM per process >      52.31 MB

     Estimated max dynamical RAM per process >      60.94 MB

     Estimated total dynamical RAM >     243.75 MB
 ----2D----2D----2D----2D----2D----2D----2D----2D----2D----2D----2D----2D
  The code is running with the 2D cutoff
  Please refer to:
  Sohier, T., Calandra, M., & Mauri, F. (2017), 
  Density functional perturbation theory for gated two-dimensional heterostructures:
  Theoretical developments and application to flexural phonons in graphene.
  Physical Review B, 96(7), 75448. https://doi.org/10.1103/PhysRevB.96.075448
 ----2D----2D----2D----2D----2D----2D----2D----2D----2D----2D----2D----2D

     Initial potential from superposition of free atoms

     starting charge      15.9996, renormalised to      16.0000

     negative rho (up, down):  4.358E-05 0.000E+00
     Starting wfcs are   16 randomized atomic wfcs

     total cpu time spent up to now is        2.2 secs

     per-process dynamical memory:   351.2 Mb

     Self-consistent Calculation
[tb_dev] Currently allocated     5.62E-01 Mbytes, locked:    0 /   5
[tb_pin] Currently allocated     0.00E+00 Mbytes, locked:    0 /   0

     iteration #  1     ecut=    84.00 Ry     beta= 0.40
     Davidson diagonalization with overlap

---- Real-time Memory Report at c_bands before calling an iterative solver
           841 MiB given to the printing process from OS
           343 MiB allocation reported by mallinfo(arena+hblkhd)
        823668 MiB available memory on the node where the printing process lives
     GPU memory used/free/total (MiB): 2048 / 94719 / 96768
------------------
     ethr =  1.00E-02,  avg # of iterations =  2.0

     negative rho (up, down):  1.334E-05 0.000E+00

     total cpu time spent up to now is        3.4 secs

     total energy              =     -53.60366567 Ry
     estimated scf accuracy    <       0.78536906 Ry
[tb_dev] Currently allocated     1.53E-05 Mbytes, locked:    0 /   1
[tb_pin] Currently allocated     0.00E+00 Mbytes, locked:    0 /   0

     iteration #  2     ecut=    84.00 Ry     beta= 0.40
     Davidson diagonalization with overlap

---- Real-time Memory Report at c_bands before calling an iterative solver
           845 MiB given to the printing process from OS
           361 MiB allocation reported by mallinfo(arena+hblkhd)
        823619 MiB available memory on the node where the printing process lives
     GPU memory used/free/total (MiB): 2052 / 94715 / 96768
------------------
     ethr =  4.91E-03,  avg # of iterations =  2.0

     negative rho (up, down):  4.748E-06 0.000E+00

     total cpu time spent up to now is        4.2 secs

     total energy              =     -53.69944292 Ry
     estimated scf accuracy    <       0.06749330 Ry
[tb_dev] Currently allocated     1.53E-05 Mbytes, locked:    0 /   1
[tb_pin] Currently allocated     0.00E+00 Mbytes, locked:    0 /   0

     iteration #  3     ecut=    84.00 Ry     beta= 0.40
     Davidson diagonalization with overlap

---- Real-time Memory Report at c_bands before calling an iterative solver
           845 MiB given to the printing process from OS
           361 MiB allocation reported by mallinfo(arena+hblkhd)
        823611 MiB available memory on the node where the printing process lives
     GPU memory used/free/total (MiB): 2052 / 94715 / 96768
------------------
     ethr =  4.22E-04,  avg # of iterations =  4.2

     negative rho (up, down):  2.511E-06 0.000E+00

     total cpu time spent up to now is        5.3 secs

     total energy              =     -53.71053383 Ry
     estimated scf accuracy    <       0.02750605 Ry
[tb_dev] Currently allocated     1.53E-05 Mbytes, locked:    0 /   1
[tb_pin] Currently allocated     0.00E+00 Mbytes, locked:    0 /   0

     iteration #  4     ecut=    84.00 Ry     beta= 0.40
     Davidson diagonalization with overlap

---- Real-time Memory Report at c_bands before calling an iterative solver
           856 MiB given to the printing process from OS
           361 MiB allocation reported by mallinfo(arena+hblkhd)
        823540 MiB available memory on the node where the printing process lives
     GPU memory used/free/total (MiB): 2054 / 94713 / 96768
------------------
     ethr =  1.72E-04,  avg # of iterations =  3.4

     negative rho (up, down):  4.638E-07 0.000E+00

     total cpu time spent up to now is        6.2 secs

     total energy              =     -53.71514910 Ry
     estimated scf accuracy    <       0.02754330 Ry
[tb_dev] Currently allocated     1.53E-05 Mbytes, locked:    0 /   1
[tb_pin] Currently allocated     0.00E+00 Mbytes, locked:    0 /   0

     iteration #  5     ecut=    84.00 Ry     beta= 0.40
     Davidson diagonalization with overlap

---- Real-time Memory Report at c_bands before calling an iterative solver
           860 MiB given to the printing process from OS
           362 MiB allocation reported by mallinfo(arena+hblkhd)
        823540 MiB available memory on the node where the printing process lives
     GPU memory used/free/total (MiB): 2054 / 94713 / 96768
------------------
     ethr =  1.72E-04,  avg # of iterations =  1.7

     negative rho (up, down):  4.294E-07 0.000E+00

     total cpu time spent up to now is        6.8 secs

     total energy              =     -53.71554273 Ry
     estimated scf accuracy    <       0.00512914 Ry
[tb_dev] Currently allocated     1.53E-05 Mbytes, locked:    0 /   1
[tb_pin] Currently allocated     0.00E+00 Mbytes, locked:    0 /   0

     iteration #  6     ecut=    84.00 Ry     beta= 0.40
     Davidson diagonalization with overlap

---- Real-time Memory Report at c_bands before calling an iterative solver
           860 MiB given to the printing process from OS
           363 MiB allocation reported by mallinfo(arena+hblkhd)
        823540 MiB available memory on the node where the printing process lives
     GPU memory used/free/total (MiB): 2054 / 94713 / 96768
------------------
     ethr =  3.21E-05,  avg # of iterations =  3.2

     negative rho (up, down):  2.775E-07 0.000E+00

     total cpu time spent up to now is        7.7 secs

     total energy              =     -53.71720333 Ry
     estimated scf accuracy    <       0.00059935 Ry
[tb_dev] Currently allocated     1.53E-05 Mbytes, locked:    0 /   1
[tb_pin] Currently allocated     0.00E+00 Mbytes, locked:    0 /   0

     iteration #  7     ecut=    84.00 Ry     beta= 0.40
     Davidson diagonalization with overlap

---- Real-time Memory Report at c_bands before calling an iterative solver
           860 MiB given to the printing process from OS
           364 MiB allocation reported by mallinfo(arena+hblkhd)
        823525 MiB available memory on the node where the printing process lives
     GPU memory used/free/total (MiB): 2054 / 94713 / 96768
------------------
     ethr =  3.75E-06,  avg # of iterations =  2.4

     negative rho (up, down):  2.728E-06 0.000E+00

     total cpu time spent up to now is        8.4 secs

     total energy              =     -53.71648997 Ry
     estimated scf accuracy    <       0.00173433 Ry
[tb_dev] Currently allocated     1.53E-05 Mbytes, locked:    0 /   1
[tb_pin] Currently allocated     0.00E+00 Mbytes, locked:    0 /   0

     iteration #  8     ecut=    84.00 Ry     beta= 0.40
     Davidson diagonalization with overlap

---- Real-time Memory Report at c_bands before calling an iterative solver
           863 MiB given to the printing process from OS
           365 MiB allocation reported by mallinfo(arena+hblkhd)
        823517 MiB available memory on the node where the printing process lives
     GPU memory used/free/total (MiB): 2054 / 94713 / 96768
------------------
     ethr =  3.75E-06,  avg # of iterations =  3.2

     negative rho (up, down):  2.114E-06 0.000E+00

     total cpu time spent up to now is        9.3 secs

     total energy              =     -53.71675426 Ry
     estimated scf accuracy    <       0.00006291 Ry
[tb_dev] Currently allocated     1.53E-05 Mbytes, locked:    0 /   1
[tb_pin] Currently allocated     0.00E+00 Mbytes, locked:    0 /   0

     iteration #  9     ecut=    84.00 Ry     beta= 0.40
     Davidson diagonalization with overlap

---- Real-time Memory Report at c_bands before calling an iterative solver
           863 MiB given to the printing process from OS
           366 MiB allocation reported by mallinfo(arena+hblkhd)
        823511 MiB available memory on the node where the printing process lives
     GPU memory used/free/total (MiB): 2054 / 94713 / 96768
------------------
     ethr =  3.93E-07,  avg # of iterations =  5.0

     total cpu time spent up to now is       10.5 secs

     total energy              =     -53.71679715 Ry
     estimated scf accuracy    <       0.00002389 Ry
[tb_dev] Currently allocated     1.53E-05 Mbytes, locked:    0 /   1
[tb_pin] Currently allocated     0.00E+00 Mbytes, locked:    0 /   0

     iteration # 10     ecut=    84.00 Ry     beta= 0.40
     Davidson diagonalization with overlap

---- Real-time Memory Report at c_bands before calling an iterative solver
           863 MiB given to the printing process from OS
           367 MiB allocation reported by mallinfo(arena+hblkhd)
        822961 MiB available memory on the node where the printing process lives
     GPU memory used/free/total (MiB): 2054 / 94713 / 96768
------------------
     ethr =  1.49E-07,  avg # of iterations =  2.3

     negative rho (up, down):  1.105E-08 0.000E+00

     total cpu time spent up to now is       11.2 secs

     total energy              =     -53.71677288 Ry
     estimated scf accuracy    <       0.00003662 Ry
[tb_dev] Currently allocated     1.53E-05 Mbytes, locked:    0 /   1
[tb_pin] Currently allocated     0.00E+00 Mbytes, locked:    0 /   0

     iteration # 11     ecut=    84.00 Ry     beta= 0.40
     Davidson diagonalization with overlap

---- Real-time Memory Report at c_bands before calling an iterative solver
           867 MiB given to the printing process from OS
           368 MiB allocation reported by mallinfo(arena+hblkhd)
        822962 MiB available memory on the node where the printing process lives
     GPU memory used/free/total (MiB): 2054 / 94713 / 96768
------------------
     ethr =  1.49E-07,  avg # of iterations =  3.7

     total cpu time spent up to now is       12.2 secs

     total energy              =     -53.71678263 Ry
     estimated scf accuracy    <       0.00004132 Ry
[tb_dev] Currently allocated     1.53E-05 Mbytes, locked:    0 /   1
[tb_pin] Currently allocated     0.00E+00 Mbytes, locked:    0 /   0

     iteration # 12     ecut=    84.00 Ry     beta= 0.40
     Davidson diagonalization with overlap

---- Real-time Memory Report at c_bands before calling an iterative solver
           867 MiB given to the printing process from OS
           368 MiB allocation reported by mallinfo(arena+hblkhd)
        822962 MiB available memory on the node where the printing process lives
     GPU memory used/free/total (MiB): 2054 / 94713 / 96768
------------------
     ethr =  1.49E-07,  avg # of iterations =  2.0

     total cpu time spent up to now is       12.9 secs

     total energy              =     -53.71678412 Ry
     estimated scf accuracy    <       0.00000440 Ry
[tb_dev] Currently allocated     1.53E-05 Mbytes, locked:    0 /   1
[tb_pin] Currently allocated     0.00E+00 Mbytes, locked:    0 /   0

     iteration # 13     ecut=    84.00 Ry     beta= 0.40
     Davidson diagonalization with overlap

---- Real-time Memory Report at c_bands before calling an iterative solver
           867 MiB given to the printing process from OS
           368 MiB allocation reported by mallinfo(arena+hblkhd)
        822962 MiB available memory on the node where the printing process lives
     GPU memory used/free/total (MiB): 2054 / 94713 / 96768
------------------
     ethr =  2.75E-08,  avg # of iterations =  4.3

     negative rho (up, down):  2.152E-07 0.000E+00

     total cpu time spent up to now is       14.0 secs

     total energy              =     -53.71678654 Ry
     estimated scf accuracy    <       0.00000075 Ry
[tb_dev] Currently allocated     1.53E-05 Mbytes, locked:    0 /   1
[tb_pin] Currently allocated     0.00E+00 Mbytes, locked:    0 /   0

     iteration # 14     ecut=    84.00 Ry     beta= 0.40
     Davidson diagonalization with overlap

---- Real-time Memory Report at c_bands before calling an iterative solver
           867 MiB given to the printing process from OS
           368 MiB allocation reported by mallinfo(arena+hblkhd)
        822961 MiB available memory on the node where the printing process lives
     GPU memory used/free/total (MiB): 2054 / 94713 / 96768
------------------
     ethr =  4.68E-09,  avg # of iterations =  2.0

     negative rho (up, down):  1.490E-07 0.000E+00

     total cpu time spent up to now is       14.6 secs

     total energy              =     -53.71678665 Ry
     estimated scf accuracy    <       0.00000005 Ry
[tb_dev] Currently allocated     1.53E-05 Mbytes, locked:    0 /   1
[tb_pin] Currently allocated     0.00E+00 Mbytes, locked:    0 /   0

     iteration # 15     ecut=    84.00 Ry     beta= 0.40
     Davidson diagonalization with overlap

---- Real-time Memory Report at c_bands before calling an iterative solver
           867 MiB given to the printing process from OS
           368 MiB allocation reported by mallinfo(arena+hblkhd)
        822957 MiB available memory on the node where the printing process lives
     GPU memory used/free/total (MiB): 2054 / 94713 / 96768
------------------
     ethr =  3.12E-10,  avg # of iterations =  4.4

     negative rho (up, down):  1.551E-07 0.000E+00

     total cpu time spent up to now is       15.7 secs

     total energy              =     -53.71678668 Ry
     estimated scf accuracy    <          7.9E-09 Ry
[tb_dev] Currently allocated     1.53E-05 Mbytes, locked:    0 /   1
[tb_pin] Currently allocated     0.00E+00 Mbytes, locked:    0 /   0

     iteration # 16     ecut=    84.00 Ry     beta= 0.40
     Davidson diagonalization with overlap

---- Real-time Memory Report at c_bands before calling an iterative solver
           867 MiB given to the printing process from OS
           368 MiB allocation reported by mallinfo(arena+hblkhd)
        822957 MiB available memory on the node where the printing process lives
     GPU memory used/free/total (MiB): 2054 / 94713 / 96768
------------------
     ethr =  4.91E-11,  avg # of iterations =  4.3

     negative rho (up, down):  7.777E-08 0.000E+00

     total cpu time spent up to now is       16.8 secs

     total energy              =     -53.71678668 Ry
     estimated scf accuracy    <       0.00000003 Ry
[tb_dev] Currently allocated     1.53E-05 Mbytes, locked:    0 /   1
[tb_pin] Currently allocated     0.00E+00 Mbytes, locked:    0 /   0

     iteration # 17     ecut=    84.00 Ry     beta= 0.40
     Davidson diagonalization with overlap

---- Real-time Memory Report at c_bands before calling an iterative solver
           867 MiB given to the printing process from OS
           368 MiB allocation reported by mallinfo(arena+hblkhd)
        822957 MiB available memory on the node where the printing process lives
     GPU memory used/free/total (MiB): 2054 / 94713 / 96768
------------------
     ethr =  4.91E-11,  avg # of iterations =  1.8

     negative rho (up, down):  4.680E-08 0.000E+00

     total cpu time spent up to now is       17.4 secs

     total energy              =     -53.71678667 Ry
     estimated scf accuracy    <       0.00000003 Ry
[tb_dev] Currently allocated     1.53E-05 Mbytes, locked:    0 /   1
[tb_pin] Currently allocated     0.00E+00 Mbytes, locked:    0 /   0

     iteration # 18     ecut=    84.00 Ry     beta= 0.40
     Davidson diagonalization with overlap

---- Real-time Memory Report at c_bands before calling an iterative solver
           867 MiB given to the printing process from OS
           368 MiB allocation reported by mallinfo(arena+hblkhd)
        822948 MiB available memory on the node where the printing process lives
     GPU memory used/free/total (MiB): 2054 / 94713 / 96768
------------------
     ethr =  4.91E-11,  avg # of iterations =  2.2

     negative rho (up, down):  3.594E-08 0.000E+00

     total cpu time spent up to now is       18.1 secs

     total energy              =     -53.71678667 Ry
     estimated scf accuracy    <          8.3E-09 Ry
[tb_dev] Currently allocated     1.53E-05 Mbytes, locked:    0 /   1
[tb_pin] Currently allocated     0.00E+00 Mbytes, locked:    0 /   0

     iteration # 19     ecut=    84.00 Ry     beta= 0.40
     Davidson diagonalization with overlap

---- Real-time Memory Report at c_bands before calling an iterative solver
           867 MiB given to the printing process from OS
           368 MiB allocation reported by mallinfo(arena+hblkhd)
        822948 MiB available memory on the node where the printing process lives
     GPU memory used/free/total (MiB): 2054 / 94713 / 96768
------------------
     ethr =  4.91E-11,  avg # of iterations =  2.5

     negative rho (up, down):  1.238E-08 0.000E+00

     total cpu time spent up to now is       18.9 secs

     total energy              =     -53.71678667 Ry
     estimated scf accuracy    <          1.2E-10 Ry
[tb_dev] Currently allocated     1.53E-05 Mbytes, locked:    0 /   1
[tb_pin] Currently allocated     0.00E+00 Mbytes, locked:    0 /   0

     iteration # 20     ecut=    84.00 Ry     beta= 0.40
     Davidson diagonalization with overlap

---- Real-time Memory Report at c_bands before calling an iterative solver
           867 MiB given to the printing process from OS
           368 MiB allocation reported by mallinfo(arena+hblkhd)
        822947 MiB available memory on the node where the printing process lives
     GPU memory used/free/total (MiB): 2054 / 94713 / 96768
------------------
     ethr =  7.54E-13,  avg # of iterations =  6.1

     total cpu time spent up to now is       20.3 secs

     total energy              =     -53.71678667 Ry
     estimated scf accuracy    <          2.8E-10 Ry
[tb_dev] Currently allocated     1.53E-05 Mbytes, locked:    0 /   1
[tb_pin] Currently allocated     0.00E+00 Mbytes, locked:    0 /   0

     iteration # 21     ecut=    84.00 Ry     beta= 0.40
     Davidson diagonalization with overlap

---- Real-time Memory Report at c_bands before calling an iterative solver
           868 MiB given to the printing process from OS
           368 MiB allocation reported by mallinfo(arena+hblkhd)
        822945 MiB available memory on the node where the printing process lives
     GPU memory used/free/total (MiB): 2054 / 94713 / 96768
------------------
     ethr =  7.54E-13,  avg # of iterations =  3.2

     total cpu time spent up to now is       21.2 secs

     End of self-consistent calculation

          k = 0.0000 0.0000 0.0000 ( 14001 PWs)   bands (ev):

   -23.9971 -23.5024 -12.5098 -10.5803  -7.6369  -7.6369  -7.3393  -7.3393

     occupation numbers 
     1.0000   1.0000   1.0000   1.0000   1.0000   1.0000   1.0000   1.0000

          k = 0.0000 0.0385 0.0000 ( 13981 PWs)   bands (ev):

   -23.9749 -23.4809 -12.4795 -10.5526  -7.7289  -7.6818  -7.4312  -7.3839

     occupation numbers 
     1.0000   1.0000   1.0000   1.0000   1.0000   1.0000   1.0000   1.0000

          k = 0.0000 0.0770 0.0000 ( 13982 PWs)   bands (ev):

   -23.9084 -23.4166 -12.3889 -10.4697  -7.9963  -7.8116  -7.6982  -7.5129

     occupation numbers 
     1.0000   1.0000   1.0000   1.0000   1.0000   1.0000   1.0000   1.0000

          k = 0.0000 0.1155 0.0000 ( 13978 PWs)   bands (ev):

   -23.7982 -23.3099 -12.2385 -10.3331  -8.4163  -8.1171  -8.0127  -7.7129

     occupation numbers 
     1.0000   1.0000   1.0000   1.0000   1.0000   1.0000   1.0000   1.0000

          k = 0.0000 0.1540 0.0000 ( 13996 PWs)   bands (ev):

   -23.6452 -23.1619 -12.0294 -10.1462  -8.9571  -8.6563  -8.2668  -7.9656

     occupation numbers 
     1.0000   1.0000   1.0000   1.0000   1.0000   1.0000   1.0000   1.0000

          k = 0.0000 0.1925 0.0000 ( 14026 PWs)   bands (ev):

   -23.4507 -22.9740 -11.7637  -9.9344  -9.5701  -9.2766  -8.5542  -8.2517

     occupation numbers 
     1.0000   1.0000   1.0000   1.0000   1.0000   1.0000   1.0000   1.0000

          k = 0.0000 0.2309 0.0000 ( 14078 PWs)   bands (ev):

   -23.2167 -22.7481 -11.4466 -10.3133 -10.0018  -9.5557  -8.8568  -8.5530

     occupation numbers 
     1.0000   1.0000   1.0000   1.0000   1.0000   1.0000   1.0000   1.0000

          k = 0.0000 0.2694 0.0000 ( 14096 PWs)   bands (ev):

   -22.9461 -22.4873 -11.1430 -11.0021 -10.6732  -9.2432  -9.1589  -8.8540

     occupation numbers 
     1.0000   1.0000   1.0000   1.0000   1.0000   1.0000   1.0000   1.0000

          k = 0.0000 0.3079 0.0000 ( 14120 PWs)   bands (ev):

   -22.6430 -22.1959 -11.7858 -11.4856 -10.5961  -9.4481  -9.1422  -8.8732

     occupation numbers 
     1.0000   1.0000   1.0000   1.0000   1.0000   1.0000   1.0000   1.0000

          k = 0.0000 0.3464 0.0000 ( 14096 PWs)   bands (ev):

   -22.3134 -21.8802 -12.5171 -12.1997 -10.1395  -9.7145  -9.4078  -8.4717

     occupation numbers 
     1.0000   1.0000   1.0000   1.0000   1.0000   1.0000   1.0000   1.0000

          k = 0.0000 0.3849 0.0000 ( 14114 PWs)   bands (ev):

   -21.9662 -21.5496 -13.2197 -12.8938  -9.9504  -9.6430  -9.6362  -8.0552

     occupation numbers 
     1.0000   1.0000   1.0000   1.0000   1.0000   1.0000   1.0000   1.0000

          k = 0.0000 0.4234 0.0000 ( 14128 PWs)   bands (ev):

   -21.6151 -21.2181 -13.8692 -13.5378 -10.1501  -9.8422  -9.1080  -7.6469

     occupation numbers 
     1.0000   1.0000   1.0000   1.0000   1.0000   1.0000   1.0000   1.0000

          k = 0.0000 0.4619 0.0000 ( 14112 PWs)   bands (ev):

   -21.2803 -20.9063 -14.4378 -14.1038 -10.3094 -10.0011  -8.5777  -7.2814

     occupation numbers 
     1.0000   1.0000   1.0000   1.0000   1.0000   1.0000   1.0000   1.0000

          k = 0.0000 0.5004 0.0000 ( 14124 PWs)   bands (ev):

   -20.9922 -20.6432 -14.8906 -14.5572 -10.4251 -10.1166  -8.0828  -7.0064

     occupation numbers 
     1.0000   1.0000   1.0000   1.0000   1.0000   1.0000   1.0000   1.0000

          k = 0.0000 0.5389 0.0000 ( 14136 PWs)   bands (ev):

   -20.7912 -20.4640 -15.1873 -14.8563 -10.4954 -10.1866  -7.6917  -6.8644

     occupation numbers 
     1.0000   1.0000   1.0000   1.0000   1.0000   1.0000   1.0000   1.0000

          k = 0.0000-0.5774 0.0000 ( 14158 PWs)   bands (ev):

   -20.7180 -20.4000 -15.2912 -14.9618 -10.5189 -10.2101  -7.5290  -6.8350

     occupation numbers 
     1.0000   1.0000   1.0000   1.0000   1.0000   1.0000   1.0000   1.0000

          k = 0.0333 0.0577 0.0000 ( 13967 PWs)   bands (ev):

   -23.9305 -23.4380 -12.4191 -10.4973  -7.9060  -7.7720  -7.6079  -7.4732

     occupation numbers 
     1.0000   1.0000   1.0000   1.0000   1.0000   1.0000   1.0000   1.0000

          k = 0.0333 0.0962 0.0000 ( 13989 PWs)   bands (ev):

   -23.8422 -23.3525 -12.2985 -10.3875  -8.2436  -7.9609  -7.9276  -7.6437

     occupation numbers 
     1.0000   1.0000   1.0000   1.0000   1.0000   1.0000   1.0000   1.0000

          k = 0.0333 0.1347 0.0000 ( 13999 PWs)   bands (ev):

   -23.7106 -23.2252 -12.1187 -10.2254  -8.7169  -8.4197  -8.1757  -7.8773

     occupation numbers 
     1.0000   1.0000   1.0000   1.0000   1.0000   1.0000   1.0000   1.0000

          k = 0.0333 0.1732 0.0000 ( 13997 PWs)   bands (ev):

   -23.5368 -23.0571 -11.8812 -10.0193  -9.2917  -8.9933  -8.4545  -8.1539

     occupation numbers 
     1.0000   1.0000   1.0000   1.0000   1.0000   1.0000   1.0000   1.0000

          k = 0.0333 0.2117 0.0000 ( 14028 PWs)   bands (ev):

   -23.3225 -22.8501 -11.5891 -10.0093  -9.7619  -9.5763  -8.7562  -8.4538

     occupation numbers 
     1.0000   1.0000   1.0000   1.0000   1.0000   1.0000   1.0000   1.0000

          k = 0.0333 0.2502 0.0000 ( 14076 PWs)   bands (ev):

   -23.0700 -22.6066 -11.2551 -10.6801 -10.3572  -9.3921  -9.0638  -8.7600

     occupation numbers 
     1.0000   1.0000   1.0000   1.0000   1.0000   1.0000   1.0000   1.0000

          k = 0.0333 0.2887 0.0000 ( 14110 PWs)   bands (ev):

   -22.7829 -22.3302 -11.4264 -11.1595 -10.7570  -9.3646  -9.0662  -9.0361

     occupation numbers 
     1.0000   1.0000   1.0000   1.0000   1.0000   1.0000   1.0000   1.0000

          k = 0.0333 0.3272 0.0000 ( 14110 PWs)   bands (ev):

   -22.4660 -22.0262 -12.1557 -11.8456 -10.3552  -9.6453  -9.3388  -8.6564

     occupation numbers 
     1.0000   1.0000   1.0000   1.0000   1.0000   1.0000   1.0000   1.0000

          k = 0.0333 0.3657 0.0000 ( 14109 PWs)   bands (ev):

   -22.1268 -21.7021 -12.8715 -12.5503  -9.8994  -9.8720  -9.5904  -8.2459

     occupation numbers 
     1.0000   1.0000   1.0000   1.0000   1.0000   1.0000   1.0000   1.0000

          k = 0.0333 0.4041 0.0000 ( 14120 PWs)   bands (ev):

   -21.7762 -21.3695 -13.5474 -13.2192 -10.1183  -9.8112  -9.3530  -7.8308

     occupation numbers 
     1.0000   1.0000   1.0000   1.0000   1.0000   1.0000   1.0000   1.0000

          k = 0.0333 0.4426 0.0000 ( 14106 PWs)   bands (ev):

   -21.4307 -21.0454 -14.1576 -13.8252 -10.2990  -9.9908  -8.8214  -7.4394

     occupation numbers 
     1.0000   1.0000   1.0000   1.0000   1.0000   1.0000   1.0000   1.0000

          k = 0.0333 0.4811 0.0000 ( 14125 PWs)   bands (ev):

   -21.1155 -20.7544 -14.6711 -14.3376 -10.4373 -10.1286  -8.3036  -7.1134

     occupation numbers 
     1.0000   1.0000   1.0000   1.0000   1.0000   1.0000   1.0000   1.0000

          k = 0.0333 0.5196 0.0000 ( 14129 PWs)   bands (ev):

   -20.8662 -20.5293 -15.0495 -14.7177 -10.5307 -10.2218  -7.8498  -6.9022

     occupation numbers 
     1.0000   1.0000   1.0000   1.0000   1.0000   1.0000   1.0000   1.0000

          k = 0.0333 0.5581 0.0000 ( 14150 PWs)   bands (ev):

   -20.7251 -20.4049 -15.2527 -14.9232 -10.5779 -10.2687  -7.5544  -6.8253

     occupation numbers 
     1.0000   1.0000   1.0000   1.0000   1.0000   1.0000   1.0000   1.0000

          k = 0.0667 0.1155 0.0000 ( 14003 PWs)   bands (ev):

   -23.7325 -23.2463 -12.1486 -10.2520  -8.6239  -8.3323  -8.1520  -7.8583

     occupation numbers 
     1.0000   1.0000   1.0000   1.0000   1.0000   1.0000   1.0000   1.0000

          k = 0.0667 0.1540 0.0000 ( 14013 PWs)   bands (ev):

   -23.5800 -23.0989 -11.9403 -10.0683  -9.1166  -8.8240  -8.4275  -8.1316

     occupation numbers 
     1.0000   1.0000   1.0000   1.0000   1.0000   1.0000   1.0000   1.0000

          k = 0.0667 0.1925 0.0000 ( 14027 PWs)   bands (ev):

   -23.3863 -22.9118 -11.6758  -9.8910  -9.6588  -9.3917  -8.7365  -8.4381

     occupation numbers 
     1.0000   1.0000   1.0000   1.0000   1.0000   1.0000   1.0000   1.0000

          k = 0.0667 0.2309 0.0000 ( 14048 PWs)   bands (ev):

   -23.1533 -22.6869 -11.3613 -10.3884 -10.0799  -9.4860  -9.0573  -8.7566

     occupation numbers 
     1.0000   1.0000   1.0000   1.0000   1.0000   1.0000   1.0000   1.0000

          k = 0.0667 0.2694 0.0000 ( 14065 PWs)   bands (ev):

   -22.8840 -22.4274 -11.1296 -11.0002 -10.7014  -9.3777  -9.1697  -9.0664

     occupation numbers 
     1.0000   1.0000   1.0000   1.0000   1.0000   1.0000   1.0000   1.0000

          k = 0.0667 0.3079 0.0000 ( 14090 PWs)   bands (ev):

   -22.5824 -22.1375 -11.8073 -11.5100 -10.5146  -9.6767  -9.3712  -8.7962

     occupation numbers 
     1.0000   1.0000   1.0000   1.0000   1.0000   1.0000   1.0000   1.0000

          k = 0.0667 0.3464 0.0000 ( 14096 PWs)   bands (ev):

   -22.2546 -21.8237 -12.5190 -12.2058 -10.0597  -9.9508  -9.6418  -8.3979

     occupation numbers 
     1.0000   1.0000   1.0000   1.0000   1.0000   1.0000   1.0000   1.0000

          k = 0.0667 0.3849 0.0000 ( 14117 PWs)   bands (ev):

   -21.9096 -21.4952 -13.2059 -12.8838 -10.1932  -9.8892  -9.5507  -7.9845

     occupation numbers 
     1.0000   1.0000   1.0000   1.0000   1.0000   1.0000   1.0000   1.0000

          k = 0.0667 0.4234 0.0000 ( 14113 PWs)   bands (ev):

   -21.5610 -21.1661 -13.8431 -13.5149 -10.3969 -10.0892  -9.0276  -7.5794

     occupation numbers 
     1.0000   1.0000   1.0000   1.0000   1.0000   1.0000   1.0000   1.0000

          k = 0.0667 0.4619 0.0000 ( 14111 PWs)   bands (ev):

   -21.2290 -20.8568 -14.4019 -14.0706 -10.5589 -10.2500  -8.5006  -7.2169

     occupation numbers 
     1.0000   1.0000   1.0000   1.0000   1.0000   1.0000   1.0000   1.0000

          k = 0.0667 0.5004 0.0000 ( 14125 PWs)   bands (ev):

   -20.9438 -20.5962 -14.8475 -14.5161 -10.6764 -10.3667  -8.0089  -6.9443

     occupation numbers 
     1.0000   1.0000   1.0000   1.0000   1.0000   1.0000   1.0000   1.0000

          k = 0.0667 0.5389 0.0000 ( 14131 PWs)   bands (ev):

   -20.7450 -20.4188 -15.1396 -14.8101 -10.7476 -10.4375  -7.6206  -6.8034

     occupation numbers 
     1.0000   1.0000   1.0000   1.0000   1.0000   1.0000   1.0000   1.0000

          k = 0.0667 0.5774 0.0000 ( 14126 PWs)   bands (ev):

   -20.6727 -20.3555 -15.2420 -14.9138 -10.7714 -10.4612  -7.4591  -6.7742

     occupation numbers 
     1.0000   1.0000   1.0000   1.0000   1.0000   1.0000   1.0000   1.0000

          k = 0.1000 0.1732 0.0000 ( 14047 PWs)   bands (ev):

   -23.4077 -22.9324 -11.7048  -9.8915  -9.5818  -9.3059  -8.7418  -8.4471

     occupation numbers 
     1.0000   1.0000   1.0000   1.0000   1.0000   1.0000   1.0000   1.0000

          k = 0.1000 0.2117 0.0000 ( 14043 PWs)   bands (ev):

   -23.1952 -22.7272 -11.4166 -10.2087  -9.9154  -9.5242  -9.0860  -8.7904

     occupation numbers 
     1.0000   1.0000   1.0000   1.0000   1.0000   1.0000   1.0000   1.0000

          k = 0.1000 0.2502 0.0000 ( 14056 PWs)   bands (ev):

   -22.9451 -22.4861 -11.1033 -10.8172 -10.5013  -9.4388  -9.2435  -9.1283

     occupation numbers 
     1.0000   1.0000   1.0000   1.0000   1.0000   1.0000   1.0000   1.0000

          k = 0.1000 0.2887 0.0000 ( 14069 PWs)   bands (ev):

   -22.6608 -22.2126 -11.5071 -11.2320 -10.6119  -9.7691  -9.4669  -8.8898

     occupation numbers 
     1.0000   1.0000   1.0000   1.0000   1.0000   1.0000   1.0000   1.0000

          k = 0.1000 0.3272 0.0000 ( 14077 PWs)   bands (ev):

   -22.3474 -21.9120 -12.1890 -11.8881 -10.1942 -10.0742  -9.7651  -8.5082

     occupation numbers 
     1.0000   1.0000   1.0000   1.0000   1.0000   1.0000   1.0000   1.0000

          k = 0.1000 0.3657 0.0000 ( 14079 PWs)   bands (ev):

   -22.0123 -21.5920 -12.8660 -12.5536 -10.3461 -10.0468  -9.6997  -8.1034

     occupation numbers 
     1.0000   1.0000   1.0000   1.0000   1.0000   1.0000   1.0000   1.0000

          k = 0.1000 0.4041 0.0000 ( 14097 PWs)   bands (ev):

   -21.6665 -21.2641 -13.5114 -13.1909 -10.5782 -10.2718  -9.1916  -7.6946

     occupation numbers 
     1.0000   1.0000   1.0000   1.0000   1.0000   1.0000   1.0000   1.0000

          k = 0.1000 0.4426 0.0000 ( 14111 PWs)   bands (ev):

   -21.3266 -20.9452 -14.0980 -13.7718 -10.7674 -10.4585  -8.6659  -7.3097

     occupation numbers 
     1.0000   1.0000   1.0000   1.0000   1.0000   1.0000   1.0000   1.0000

          k = 0.1000 0.4811 0.0000 ( 14129 PWs)   bands (ev):

   -21.0174 -20.6596 -14.5933 -14.2646 -10.9114 -10.6010  -8.1544  -6.9895

     occupation numbers 
     1.0000   1.0000   1.0000   1.0000   1.0000   1.0000   1.0000   1.0000

          k = 0.1000 0.5196 0.0000 ( 14123 PWs)   bands (ev):

   -20.7735 -20.4392 -14.9590 -14.6307 -11.0082 -10.6969  -7.7069  -6.7820

     occupation numbers 
     1.0000   1.0000   1.0000   1.0000   1.0000   1.0000   1.0000   1.0000

          k = 0.1000 0.5581 0.0000 ( 14112 PWs)   bands (ev):

   -20.6360 -20.3176 -15.1555 -14.8287 -11.0570 -10.7452  -7.4161  -6.7063

     occupation numbers 
     1.0000   1.0000   1.0000   1.0000   1.0000   1.0000   1.0000   1.0000

          k = 0.1333 0.2309 0.0000 ( 14047 PWs)   bands (ev):

   -22.9655 -22.5058 -11.1212 -10.7205 -10.4141  -9.4733  -9.2693  -9.1647

     occupation numbers 
     1.0000   1.0000   1.0000   1.0000   1.0000   1.0000   1.0000   1.0000

          k = 0.1333 0.2694 0.0000 ( 14048 PWs)   bands (ev):

   -22.7002 -22.2504 -11.3188 -11.0720 -10.6470  -9.8524  -9.5560  -8.9368

     occupation numbers 
     1.0000   1.0000   1.0000   1.0000   1.0000   1.0000   1.0000   1.0000

          k = 0.1333 0.3079 0.0000 ( 14055 PWs)   bands (ev):

   -22.4036 -21.9656 -11.9305 -11.6466 -10.2750 -10.2085  -9.9021  -8.5750

     occupation numbers 
     1.0000   1.0000   1.0000   1.0000   1.0000   1.0000   1.0000   1.0000

          k = 0.1333 0.3464 0.0000 ( 14078 PWs)   bands (ev):

   -22.0819 -21.6578 -12.5643 -12.2669 -10.5269 -10.2330  -9.8011  -8.1843

     occupation numbers 
     1.0000   1.0000   1.0000   1.0000   1.0000   1.0000   1.0000   1.0000

          k = 0.1333 0.3849 0.0000 ( 14091 PWs)   bands (ev):

   -21.7441 -21.3364 -13.1906 -12.8826 -10.8005 -10.4974  -9.3108  -7.7803

     occupation numbers 
     1.0000   1.0000   1.0000   1.0000   1.0000   1.0000   1.0000   1.0000

          k = 0.1333 0.4234 0.0000 ( 14114 PWs)   bands (ev):

   -21.4038 -21.0153 -13.7810 -13.4646 -11.0265 -10.7191  -8.7941  -7.3854

     occupation numbers 
     1.0000   1.0000   1.0000   1.0000   1.0000   1.0000   1.0000   1.0000

          k = 0.1333 0.4619 0.0000 ( 14111 PWs)   bands (ev):

   -21.0811 -20.7147 -14.3043 -13.9822 -11.2035 -10.8931  -8.2763  -7.0330

     occupation numbers 
     1.0000   1.0000   1.0000   1.0000   1.0000   1.0000   1.0000   1.0000

          k = 0.1333 0.5004 0.0000 ( 14120 PWs)   bands (ev):

   -20.8052 -20.4623 -14.7238 -14.3993 -11.3305 -11.0182  -7.7947  -6.7683

     occupation numbers 
     1.0000   1.0000   1.0000   1.0000   1.0000   1.0000   1.0000   1.0000

          k = 0.1333 0.5389 0.0000 ( 14112 PWs)   bands (ev):

   -20.6140 -20.2911 -14.9995 -14.6749 -11.4069 -11.0935  -7.4155  -6.6314

     occupation numbers 
     1.0000   1.0000   1.0000   1.0000   1.0000   1.0000   1.0000   1.0000

          k = 0.1333 0.5774 0.0000 ( 14122 PWs)   bands (ev):

   -20.5447 -20.2301 -15.0962 -14.7721 -11.4324 -11.1187  -7.2580  -6.6029

     occupation numbers 
     1.0000   1.0000   1.0000   1.0000   1.0000   1.0000   1.0000   1.0000

          k = 0.1667 0.2887 0.0000 ( 14061 PWs)   bands (ev):

   -22.4225 -21.9835 -11.8259 -11.5525 -10.3019 -10.2694  -9.9660  -8.5974

     occupation numbers 
     1.0000   1.0000   1.0000   1.0000   1.0000   1.0000   1.0000   1.0000

          k = 0.1667 0.3272 0.0000 ( 14074 PWs)   bands (ev):

   -22.1170 -21.6910 -12.3696 -12.0889 -10.6575 -10.3703  -9.8527  -8.2253

     occupation numbers 
     1.0000   1.0000   1.0000   1.0000   1.0000   1.0000   1.0000   1.0000

          k = 0.1667 0.3657 0.0000 ( 14098 PWs)   bands (ev):

   -21.7915 -21.3806 -12.9325 -12.6427 -10.9977 -10.7018  -9.3832  -7.8331

     occupation numbers 
     1.0000   1.0000   1.0000   1.0000   1.0000   1.0000   1.0000   1.0000

          k = 0.1667 0.4041 0.0000 ( 14097 PWs)   bands (ev):

   -21.4570 -21.0637 -13.4896 -13.1893 -11.2818 -10.9795  -8.8814  -7.4387

     occupation numbers 
     1.0000   1.0000   1.0000   1.0000   1.0000   1.0000   1.0000   1.0000

          k = 0.1667 0.4426 0.0000 ( 14096 PWs)   bands (ev):

   -21.1300 -20.7571 -14.0092 -13.6996 -11.5076 -11.2002  -8.3678  -7.0691

     occupation numbers 
     1.0000   1.0000   1.0000   1.0000   1.0000   1.0000   1.0000   1.0000

          k = 0.1667 0.4811 0.0000 ( 14111 PWs)   bands (ev):

   -20.8346 -20.4841 -14.4551 -14.1390 -11.6758 -11.3645  -7.8704  -6.7626

     occupation numbers 
     1.0000   1.0000   1.0000   1.0000   1.0000   1.0000   1.0000   1.0000

          k = 0.1667 0.5196 0.0000 ( 14127 PWs)   bands (ev):

   -20.6034 -20.2745 -14.7874 -14.4678 -11.7873 -11.4735  -7.4372  -6.5646

     occupation numbers 
     1.0000   1.0000   1.0000   1.0000   1.0000   1.0000   1.0000   1.0000

          k = 0.1667 0.5581 0.0000 ( 14121 PWs)   bands (ev):

   -20.4741 -20.1594 -14.9665 -14.6459 -11.8428 -11.5278  -7.1568  -6.4921

     occupation numbers 
     1.0000   1.0000   1.0000   1.0000   1.0000   1.0000   1.0000   1.0000

          k = 0.2000 0.3464 0.0000 ( 14081 PWs)   bands (ev):

   -21.8074 -21.3954 -12.8262 -12.5480 -11.0804 -10.7901  -9.4075  -7.8509

     occupation numbers 
     1.0000   1.0000   1.0000   1.0000   1.0000   1.0000   1.0000   1.0000

          k = 0.2000 0.3849 0.0000 ( 14096 PWs)   bands (ev):

   -21.4841 -21.0885 -13.2963 -13.0149 -11.4514 -11.1579  -8.9257  -7.4663

     occupation numbers 
     1.0000   1.0000   1.0000   1.0000   1.0000   1.0000   1.0000   1.0000

          k = 0.2000 0.4234 0.0000 ( 14080 PWs)   bands (ev):

   -21.1607 -20.7839 -13.7618 -13.4719 -11.7561 -11.4570  -8.4243  -7.0928

     occupation numbers 
     1.0000   1.0000   1.0000   1.0000   1.0000   1.0000   1.0000   1.0000

          k = 0.2000 0.4619 0.0000 ( 14102 PWs)   bands (ev):

   -20.8569 -20.5009 -14.1913 -13.8911 -11.9902 -11.6848  -7.9252  -6.7619

     occupation numbers 
     1.0000   1.0000   1.0000   1.0000   1.0000   1.0000   1.0000   1.0000

          k = 0.2000 0.5004 0.0000 ( 14106 PWs)   bands (ev):

   -20.6000 -20.2655 -14.5449 -14.2361 -12.1546 -11.8441  -7.4640  -6.5149

     occupation numbers 
     1.0000   1.0000   1.0000   1.0000   1.0000   1.0000   1.0000   1.0000

          k = 0.2000 0.5389 0.0000 ( 14110 PWs)   bands (ev):

   -20.4240 -20.1069 -14.7804 -14.4666 -12.2518 -11.9382  -7.1033  -6.3876

     occupation numbers 
     1.0000   1.0000   1.0000   1.0000   1.0000   1.0000   1.0000   1.0000

          k = 0.2000 0.5774 0.0000 ( 14119 PWs)   bands (ev):

   -20.3607 -20.0507 -14.8635 -14.5481 -12.2840 -11.9693  -6.9540  -6.3613

     occupation numbers 
     1.0000   1.0000   1.0000   1.0000   1.0000   1.0000   1.0000   1.0000

          k = 0.2333 0.4041 0.0000 ( 14089 PWs)   bands (ev):

   -21.1712 -20.7930 -13.6571 -13.3805 -11.8566 -11.5644  -8.4434  -7.1011

     occupation numbers 
     1.0000   1.0000   1.0000   1.0000   1.0000   1.0000   1.0000   1.0000

          k = 0.2333 0.4426 0.0000 ( 14081 PWs)   bands (ev):

   -20.8689 -20.5101 -14.0078 -13.7280 -12.1911 -11.8965  -7.9539  -6.7626

     occupation numbers 
     1.0000   1.0000   1.0000   1.0000   1.0000   1.0000   1.0000   1.0000

          k = 0.2333 0.4811 0.0000 ( 14099 PWs)   bands (ev):

   -20.5997 -20.2613 -14.3246 -14.0352 -12.4430 -12.1429  -7.4843  -6.4853

     occupation numbers 
     1.0000   1.0000   1.0000   1.0000   1.0000   1.0000   1.0000   1.0000

          k = 0.2333 0.5196 0.0000 ( 14104 PWs)   bands (ev):

   -20.3926 -20.0726 -14.5702 -14.2704 -12.6094 -12.3034  -7.0795  -6.3080

     occupation numbers 
     1.0000   1.0000   1.0000   1.0000   1.0000   1.0000   1.0000   1.0000

          k = 0.2333 0.5581 0.0000 ( 14097 PWs)   bands (ev):

   -20.2783 -19.9699 -14.7058 -14.3996 -12.6916 -12.3821  -6.8194  -6.2440

     occupation numbers 
     1.0000   1.0000   1.0000   1.0000   1.0000   1.0000   1.0000   1.0000

          k = 0.2667 0.4619 0.0000 ( 14075 PWs)   bands (ev):

   -20.6000 -20.2601 -14.2262 -13.9515 -12.5578 -12.2667  -7.4917  -6.4756

     occupation numbers 
     1.0000   1.0000   1.0000   1.0000   1.0000   1.0000   1.0000   1.0000

          k = 0.2667 0.5004 0.0000 ( 14103 PWs)   bands (ev):

   -20.3776 -20.0557 -14.4088 -14.1301 -12.8340 -12.5426  -7.0711  -6.2655

     occupation numbers 
     1.0000   1.0000   1.0000   1.0000   1.0000   1.0000   1.0000   1.0000

          k = 0.2667 0.5389 0.0000 ( 14121 PWs)   bands (ev):

   -20.2286 -19.9203 -14.5351 -14.2476 -13.0048 -12.7102  -6.7472  -6.1595

     occupation numbers 
     1.0000   1.0000   1.0000   1.0000   1.0000   1.0000   1.0000   1.0000

          k = 0.2667 0.5774 0.0000 ( 14105 PWs)   bands (ev):

   -20.1759 -19.8726 -14.5808 -14.2889 -13.0624 -12.7660  -6.6141  -6.1387

     occupation numbers 
     1.0000   1.0000   1.0000   1.0000   1.0000   1.0000   1.0000   1.0000

          k = 0.3000 0.5196 0.0000 ( 14125 PWs)   bands (ev):

   -20.2121 -19.9035 -14.4499 -14.1792 -13.1283 -12.8481  -6.7249  -6.1286

     occupation numbers 
     1.0000   1.0000   1.0000   1.0000   1.0000   1.0000   1.0000   1.0000

          k = 0.3000 0.5581 0.0000 ( 14135 PWs)   bands (ev):

   -20.1231 -19.8221 -14.4624 -14.1953 -13.2894 -13.0180  -6.5080  -6.0804

     occupation numbers 
     1.0000   1.0000   1.0000   1.0000   1.0000   1.0000   1.0000   1.0000

          k = 0.3333 0.5774 0.0000 ( 14103 PWs)   bands (ev):

   -20.0867 -19.7882 -14.4182 -14.1683 -13.3948 -13.1433  -6.4163  -6.0602

     occupation numbers 
     1.0000   1.0000   1.0000   1.0000   1.0000   1.0000   1.0000   1.0000

     highest occupied level (ev):    -6.0602

!    total energy              =     -53.71678667 Ry
     estimated scf accuracy    <          1.4E-11 Ry

     The total energy is the sum of the following terms:
     one-electron contribution =   -1840.35394180 Ry
     hartree contribution      =     922.19065974 Ry
     xc contribution           =     -17.28192425 Ry
     ewald contribution        =     881.76533992 Ry
     Dispersion Correction     =      -0.03692028 Ry

     convergence has been achieved in  21 iterations

     Forces acting on atoms (cartesian axes, Ry/au):

     atom    1 type  1   force =    -0.00000000   -0.00000000   -0.00001570
     atom    2 type  1   force =     0.00000000    0.00000000   -0.00001626
     atom    3 type  2   force =    -0.00000000   -0.00000000    0.00002092
     atom    4 type  2   force =     0.00000000    0.00000000    0.00001105
     The non-local contrib.  to forces
     atom    1 type  1   force =     0.00000000    0.00000000   -0.00078000
     atom    2 type  1   force =     0.00000000    0.00000000   -0.00216346
     atom    3 type  2   force =     0.00000000    0.00000000    0.00085405
     atom    4 type  2   force =    -0.00000000   -0.00000000   -0.00560480
     The ionic contribution  to forces
     atom    1 type  1   force =    -0.00000000    0.00000000  -15.71976087
     atom    2 type  1   force =     0.00000000   -0.00000000   15.74119484
     atom    3 type  2   force =     0.00000000   -0.00000000  -26.35043766
     atom    4 type  2   force =    -0.00000000    0.00000000   26.32900368
     The local contribution  to forces
     atom    1 type  1   force =    -0.00000000   -0.00000000   15.71554484
     atom    2 type  1   force =    -0.00000000    0.00000000  -15.73550359
     atom    3 type  2   force =     0.00000000   -0.00000000   26.34663477
     atom    4 type  2   force =    -0.00000000    0.00000000  -26.31906279
     The core correction contribution to forces
     atom    1 type  1   force =    -0.00000000   -0.00000000   -0.00015416
     atom    2 type  1   force =    -0.00000000    0.00000000    0.00012550
     atom    3 type  2   force =    -0.00000000    0.00000000    0.00031302
     atom    4 type  2   force =     0.00000000   -0.00000000   -0.00020440
     The Hubbard contrib.    to forces
     atom    1 type  1   force =     0.00000000    0.00000000    0.00000000
     atom    2 type  1   force =     0.00000000    0.00000000    0.00000000
     atom    3 type  2   force =     0.00000000    0.00000000    0.00000000
     atom    4 type  2   force =     0.00000000    0.00000000    0.00000000
     The SCF correction term to forces
     atom    1 type  1   force =    -0.00000000    0.00000000    0.00000049
     atom    2 type  1   force =     0.00000000   -0.00000000   -0.00000011
     atom    3 type  2   force =     0.00000000   -0.00000000    0.00000082
     atom    4 type  2   force =    -0.00000000    0.00000000   -0.00000027

     Dispersion contribution to forces:
     atom    1 type  1   force =    -0.00000000    0.00000000    0.00513398
     atom    2 type  1   force =     0.00000000   -0.00000000   -0.00366948
     atom    3 type  2   force =     0.00000000   -0.00000000    0.00265589
     atom    4 type  2   force =    -0.00000000    0.00000000   -0.00412039

     Total force =     0.000033     Total SCF correction =     0.000001

     Total Dispersion Force =     0.007991


     Computing stress (Cartesian axis) and pressure

          total   stress  (Ry/bohr**3)                   (kbar)     P=       -0.01
   0.00000001  -0.00000000   0.00000000            0.00       -0.00        0.00
   0.00000000   0.00000001  -0.00000000            0.00        0.00       -0.00
   0.00000000  -0.00000000  -0.00000030            0.00       -0.00       -0.04

     kinetic stress (kbar)   3329.11     -0.00      0.00
                                0.00   3329.11      0.00
                                0.00      0.00   3613.98

     local   stress (kbar)-251868.73     -0.00      0.00
                               -0.00-251868.73     -0.00
                                0.00     -0.00 252424.75

     nonloc. stress (kbar)   -599.56     -0.00      0.00
                               -0.00   -599.56      0.00
                                0.00      0.00   -575.00

     hartree stress (kbar) 124648.59     -0.00      0.00
                               -0.00 124648.59     -0.00
                                0.00     -0.00-124100.17

     exc-cor stress (kbar)   -324.58      0.00      0.00
                                0.00   -324.58      0.00
                                0.00      0.00   -324.58

     corecor stress (kbar)   -371.53     -0.00      0.00
                               -0.00   -371.53     -0.00
                                0.00     -0.00   -364.15

     ewald   stress (kbar) 125188.97      0.00     -0.00
                                0.00 125188.97      0.00
                               -0.00      0.00-130669.09

     hubbard stress (kbar)      0.00      0.00      0.00
                                0.00      0.00      0.00
                                0.00      0.00      0.00

     DFT-D   stress (kbar)     -2.28     -0.00      0.00
                               -0.00     -2.28     -0.00
                                0.00     -0.00     -5.79

     XDM     stress (kbar)      0.00      0.00      0.00
                                0.00      0.00      0.00
                                0.00      0.00      0.00

     dft-nl  stress (kbar)      0.00      0.00      0.00
                                0.00      0.00      0.00
                                0.00      0.00      0.00

     TS-vdW  stress (kbar)      0.00      0.00      0.00
                                0.00      0.00      0.00
                                0.00      0.00      0.00

     MDB     stress (kbar)      0.00      0.00      0.00
                                0.00      0.00      0.00
                                0.00      0.00      0.00

     3D-RISM stress (kbar)      0.00      0.00      0.00
                                0.00      0.00      0.00
                                0.00      0.00      0.00


     Writing all to output data dir ./out_born/born.save/ :
     XML data file, charge density, pseudopotentials, collected wavefunctions
 
     init_run     :      0.40s CPU      1.96s WALL (       1 calls)
     electrons    :     16.13s CPU     18.97s WALL (       1 calls)
     forces       :      0.17s CPU      0.15s WALL (       1 calls)
     force_london :      0.04s CPU      0.01s WALL (       1 calls)
     stress       :      0.45s CPU      0.54s WALL (       1 calls)
     stres_london :      0.02s CPU      0.01s WALL (       1 calls)

     Called by init_run:
     wfcinit      :      0.26s CPU      0.99s WALL (       1 calls)
     wfcinit:atom :      0.02s CPU      0.03s WALL (      91 calls)
     wfcinit:wfcr :      0.21s CPU      0.90s WALL (      91 calls)
     potinit      :      0.00s CPU      0.02s WALL (       1 calls)
     hinit0       :      0.10s CPU      0.87s WALL (       1 calls)

     Called by electrons:
     c_bands      :     14.81s CPU     17.00s WALL (      21 calls)
     sum_band     :      1.14s CPU      1.58s WALL (      21 calls)
     v_of_rho     :      0.02s CPU      0.24s WALL (      22 calls)
     v_h          :      0.02s CPU      0.22s WALL (      22 calls)
     v_xc         :      0.01s CPU      0.01s WALL (      24 calls)
     mix_rho      :      0.09s CPU      0.11s WALL (      21 calls)
     energy_londo :      0.04s CPU      0.01s WALL (       1 calls)

     Called by c_bands:
     init_us_2    :      0.81s CPU      0.92s WALL (    4095 calls)
     cegterg      :     13.43s CPU     15.25s WALL (    1911 calls)

     Called by sum_band:
     sum_band:wei :      0.00s CPU      0.00s WALL (      21 calls)
     sum_band:loo :      1.10s CPU      1.23s WALL (      21 calls)
     sum_band:buf :      0.06s CPU      0.07s WALL (    1911 calls)
     sum_band:ini :      0.37s CPU      0.42s WALL (    1911 calls)

     Called by *egterg:
     cdiaghg      :      1.82s CPU      2.32s WALL (    7891 calls)
                                        2.27s GPU  (    7891 calls)
     cegterg:over :      2.07s CPU      2.35s WALL (    5980 calls)
     cegterg:upda :      0.52s CPU      0.60s WALL (    5980 calls)
     cegterg:last :      0.18s CPU      0.20s WALL (    5049 calls)
     h_psi        :      6.83s CPU      8.31s WALL (    7982 calls)
                                        8.25s GPU  (    7982 calls)
     g_psi        :      0.03s CPU      0.10s WALL (    5980 calls)
                                        0.05s GPU  (    5980 calls)

     Called by h_psi:
     h_psi:calbec :      1.43s CPU      1.79s WALL (    7982 calls)
                                        1.73s GPU  (    7982 calls)
     vloc_psi     :      4.25s CPU      5.29s WALL (    7982 calls)
                                        5.23s GPU  (    7982 calls)
     add_vuspsi   :      0.67s CPU      0.85s WALL (    7982 calls)
                                        0.79s GPU  (    7982 calls)

     General routines
     calbec       :      1.65s CPU      2.02s WALL (    9529 calls)
     fft          :      0.10s CPU      1.16s WALL (      73 calls)
                                        1.16s GPU  (      73 calls)
     ffts         :      0.00s CPU      0.22s WALL (      21 calls)
                                        0.22s GPU  (      21 calls)
     fftw         :      2.95s CPU      4.06s WALL (   17875 calls)
                                        3.95s GPU  (   17875 calls)
 
     Parallel routines
 
     PWSCF        :     18.25s CPU     22.40s WALL

 
   This run was terminated on:  13:42:21  11Aug2025            

=------------------------------------------------------------------------------=
   JOB DONE.
=------------------------------------------------------------------------------=
Warning: ieee_underflow is signaling
Warning: ieee_inexact is signaling
FORTRAN STOP
Warning: ieee_underflow is signaling
Warning: ieee_inexact is signaling
FORTRAN STOP
Warning: ieee_underflow is signaling
Warning: ieee_inexact is signaling
FORTRAN STOP
Warning: ieee_underflow is signaling
Warning: ieee_inexact is signaling
FORTRAN STOP

     Program PHONON v.7.4 starts on 11Aug2025 at 13:42:28 

     This program is part of the open-source Quantum ESPRESSO suite
     for quantum simulation of materials; please cite
         "P. Giannozzi et al., J. Phys.:Condens. Matter 21 395502 (2009);
         "P. Giannozzi et al., J. Phys.:Condens. Matter 29 465901 (2017);
         "P. Giannozzi et al., J. Chem. Phys. 152 154105 (2020);
          URL http://www.quantum-espresso.org", 
     in publications or presentations arising from this work. More details at
     http://www.quantum-espresso.org/quote

     Parallel version (MPI & OpenMP), running on      80 processor cores
     Number of MPI processes:                 4
     Threads/MPI process:                    20

     MPI processes distributed on     1 nodes
     827399 MiB available memory on the printing compute node when the environment starts
 
     Waiting for input...
     Reading input from standard input
      Title line not specified: using 'default'.

     Reading xml data from directory:

     ./out_born/born.save/
 
     R & G space division:  proc/nbgrp/npool/nimage =       4
     Subspace diagonalization in iterative solution of the eigenvalue problem:
     a serial algorithm will be used


     IMPORTANT: XC functional enforced from input :
     Exchange-correlation= PW
                           (   1   4   0   0   0   0   0)
     Any further DFT definition will be discarded
     Please, verify this is what you really want

 
     Parallelization info
     --------------------
     sticks:   dense  smooth     PW     G-vecs:    dense   smooth      PW
     Min         127     127     37                28217    28217    4621
     Max         128     128     38                28254    28254    4668
     Sum         511     511    151               112933   112933   18619
 
     Using Slab Decomposition
 
 ----2D----2D----2D----2D----2D----2D----2D----2D----2D----2D----2D----2D
  The code is running with the 2D cutoff
  Please refer to:
  Sohier, T., Calandra, M., & Mauri, F. (2017), 
  Density functional perturbation theory for gated two-dimensional heterostructures:
  Theoretical developments and application to flexural phonons in graphene.
  Physical Review B, 96(7), 75448. https://doi.org/10.1103/PhysRevB.96.075448
 ----2D----2D----2D----2D----2D----2D----2D----2D----2D----2D----2D----2D
     Reading collected, re-writing distributed wavefunctions in ./out_born/

     Number and degeneracy of irreps per q-point
       N         xq(1)         xq(2)         xq(3)   N irreps
       1   0.000000000   0.000000000   0.000000000       8
        1   1   1   1   2   2   2   2

     Calculation of q =    0.0000000   0.0000000   0.0000000

     GPU acceleration is ACTIVE.  1 visible GPUs per MPI rank
     GPU-aware MPI enabled

     Message from routine print_cuda_info:
     High GPU oversubscription detected. Are you sure this is what you want?

     default                                                                    

     bravais-lattice index     =            4
     lattice parameter (alat)  =       4.6979  a.u.
     unit-cell volume          =    1083.5636 (a.u.)^3
     number of atoms/cell      =            4
     number of atomic types    =            2
     kinetic-energy cut-off    =      84.0000  Ry
     charge density cut-off    =     336.0000  Ry
     convergence threshold     =      1.0E-12
     beta                      =       0.7000
     number of iterations used =            4
     Exchange-correlation= PW
                           (   1   4   0   0   0   0   0)


     celldm(1)=    4.69788  celldm(2)=    0.00000  celldm(3)=   12.06753
     celldm(4)=    0.00000  celldm(5)=    0.00000  celldm(6)=    0.00000

     crystal axes: (cart. coord. in units of alat)
               a(1) = (  1.0000  0.0000  0.0000 )  
               a(2) = ( -0.5000  0.8660  0.0000 )  
               a(3) = (  0.0000  0.0000 12.0675 )  

     reciprocal axes: (cart. coord. in units 2 pi/alat)
               b(1) = (  1.0000  0.5774 -0.0000 )  
               b(2) = (  0.0000  1.1547  0.0000 )  
               b(3) = (  0.0000 -0.0000  0.0829 )  


     Atoms inside the unit cell: 

     Cartesian axes

     site n.  atom      mass           positions (alat units)
        1  B      10.8110   tau(    1) = (    0.00000    0.00000    5.45226  )
        2  B      10.8110   tau(    2) = (   -0.00000    0.57735    6.61530  )
        3  N      14.0067   tau(    3) = (   -0.00000    0.57735    5.45070  )
        4  N      14.0067   tau(    4) = (    0.50000    0.28868    6.61679  )

     Computing dynamical matrix for 
                    q = (   0.0000000   0.0000000   0.0000000 )
 
      7 Sym.Ops. (with q -> -q+G )


     G cutoff =  187.8379  (  28220 G-vectors)     FFT grid: ( 27, 27,360)
     number of k points=    91
                       cart. coord. in units 2pi/alat
        k(    1) = (   0.0000000   0.0000000   0.0000000), wk =   0.0022222
        k(    2) = (   0.0000000   0.0384900   0.0000000), wk =   0.0133333
        k(    3) = (   0.0000000   0.0769800   0.0000000), wk =   0.0133333
        k(    4) = (   0.0000000   0.1154701   0.0000000), wk =   0.0133333
        k(    5) = (   0.0000000   0.1539601   0.0000000), wk =   0.0133333
        k(    6) = (   0.0000000   0.1924501   0.0000000), wk =   0.0133333
        k(    7) = (   0.0000000   0.2309401   0.0000000), wk =   0.0133333
        k(    8) = (   0.0000000   0.2694301   0.0000000), wk =   0.0133333
        k(    9) = (   0.0000000   0.3079201   0.0000000), wk =   0.0133333
        k(   10) = (   0.0000000   0.3464102   0.0000000), wk =   0.0133333
        k(   11) = (   0.0000000   0.3849002   0.0000000), wk =   0.0133333
        k(   12) = (   0.0000000   0.4233902   0.0000000), wk =   0.0133333
        k(   13) = (   0.0000000   0.4618802   0.0000000), wk =   0.0133333
        k(   14) = (   0.0000000   0.5003702   0.0000000), wk =   0.0133333
        k(   15) = (   0.0000000   0.5388603   0.0000000), wk =   0.0133333
        k(   16) = (   0.0000000  -0.5773503   0.0000000), wk =   0.0066667
        k(   17) = (   0.0333333   0.0577350   0.0000000), wk =   0.0133333
        k(   18) = (   0.0333333   0.0962250   0.0000000), wk =   0.0266667
        k(   19) = (   0.0333333   0.1347151   0.0000000), wk =   0.0266667
        k(   20) = (   0.0333333   0.1732051   0.0000000), wk =   0.0266667
        k(   21) = (   0.0333333   0.2116951   0.0000000), wk =   0.0266667
        k(   22) = (   0.0333333   0.2501851   0.0000000), wk =   0.0266667
        k(   23) = (   0.0333333   0.2886751   0.0000000), wk =   0.0266667
        k(   24) = (   0.0333333   0.3271652   0.0000000), wk =   0.0266667
        k(   25) = (   0.0333333   0.3656552   0.0000000), wk =   0.0266667
        k(   26) = (   0.0333333   0.4041452   0.0000000), wk =   0.0266667
        k(   27) = (   0.0333333   0.4426352   0.0000000), wk =   0.0266667
        k(   28) = (   0.0333333   0.4811252   0.0000000), wk =   0.0266667
        k(   29) = (   0.0333333   0.5196152   0.0000000), wk =   0.0266667
        k(   30) = (   0.0333333   0.5581053   0.0000000), wk =   0.0266667
        k(   31) = (   0.0666667   0.1154701   0.0000000), wk =   0.0133333
        k(   32) = (   0.0666667   0.1539601   0.0000000), wk =   0.0266667
        k(   33) = (   0.0666667   0.1924501   0.0000000), wk =   0.0266667
        k(   34) = (   0.0666667   0.2309401   0.0000000), wk =   0.0266667
        k(   35) = (   0.0666667   0.2694301   0.0000000), wk =   0.0266667
        k(   36) = (   0.0666667   0.3079201   0.0000000), wk =   0.0266667
        k(   37) = (   0.0666667   0.3464102   0.0000000), wk =   0.0266667
        k(   38) = (   0.0666667   0.3849002   0.0000000), wk =   0.0266667
        k(   39) = (   0.0666667   0.4233902   0.0000000), wk =   0.0266667
        k(   40) = (   0.0666667   0.4618802   0.0000000), wk =   0.0266667
        k(   41) = (   0.0666667   0.5003702   0.0000000), wk =   0.0266667
        k(   42) = (   0.0666667   0.5388603   0.0000000), wk =   0.0266667
        k(   43) = (   0.0666667   0.5773503   0.0000000), wk =   0.0133333
        k(   44) = (   0.1000000   0.1732051   0.0000000), wk =   0.0133333
        k(   45) = (   0.1000000   0.2116951   0.0000000), wk =   0.0266667
        k(   46) = (   0.1000000   0.2501851   0.0000000), wk =   0.0266667
        k(   47) = (   0.1000000   0.2886751   0.0000000), wk =   0.0266667
        k(   48) = (   0.1000000   0.3271652   0.0000000), wk =   0.0266667
        k(   49) = (   0.1000000   0.3656552   0.0000000), wk =   0.0266667
        k(   50) = (   0.1000000   0.4041452   0.0000000), wk =   0.0266667
        k(   51) = (   0.1000000   0.4426352   0.0000000), wk =   0.0266667
        k(   52) = (   0.1000000   0.4811252   0.0000000), wk =   0.0266667
        k(   53) = (   0.1000000   0.5196152   0.0000000), wk =   0.0266667
        k(   54) = (   0.1000000   0.5581053   0.0000000), wk =   0.0266667
        k(   55) = (   0.1333333   0.2309401   0.0000000), wk =   0.0133333
        k(   56) = (   0.1333333   0.2694301   0.0000000), wk =   0.0266667
        k(   57) = (   0.1333333   0.3079201   0.0000000), wk =   0.0266667
        k(   58) = (   0.1333333   0.3464102   0.0000000), wk =   0.0266667
        k(   59) = (   0.1333333   0.3849002   0.0000000), wk =   0.0266667
        k(   60) = (   0.1333333   0.4233902   0.0000000), wk =   0.0266667
        k(   61) = (   0.1333333   0.4618802   0.0000000), wk =   0.0266667
        k(   62) = (   0.1333333   0.5003702   0.0000000), wk =   0.0266667
        k(   63) = (   0.1333333   0.5388603   0.0000000), wk =   0.0266667
        k(   64) = (   0.1333333   0.5773503   0.0000000), wk =   0.0133333
        k(   65) = (   0.1666667   0.2886751   0.0000000), wk =   0.0133333
        k(   66) = (   0.1666667   0.3271652   0.0000000), wk =   0.0266667
        k(   67) = (   0.1666667   0.3656552   0.0000000), wk =   0.0266667
        k(   68) = (   0.1666667   0.4041452   0.0000000), wk =   0.0266667
        k(   69) = (   0.1666667   0.4426352   0.0000000), wk =   0.0266667
        k(   70) = (   0.1666667   0.4811252   0.0000000), wk =   0.0266667
        k(   71) = (   0.1666667   0.5196152   0.0000000), wk =   0.0266667
        k(   72) = (   0.1666667   0.5581053   0.0000000), wk =   0.0266667
        k(   73) = (   0.2000000   0.3464102   0.0000000), wk =   0.0133333
        k(   74) = (   0.2000000   0.3849002   0.0000000), wk =   0.0266667
        k(   75) = (   0.2000000   0.4233902   0.0000000), wk =   0.0266667
        k(   76) = (   0.2000000   0.4618802   0.0000000), wk =   0.0266667
        k(   77) = (   0.2000000   0.5003702   0.0000000), wk =   0.0266667
        k(   78) = (   0.2000000   0.5388603   0.0000000), wk =   0.0266667
        k(   79) = (   0.2000000   0.5773503   0.0000000), wk =   0.0133333
        k(   80) = (   0.2333333   0.4041452   0.0000000), wk =   0.0133333
        k(   81) = (   0.2333333   0.4426352   0.0000000), wk =   0.0266667
        k(   82) = (   0.2333333   0.4811252   0.0000000), wk =   0.0266667
        k(   83) = (   0.2333333   0.5196152   0.0000000), wk =   0.0266667
        k(   84) = (   0.2333333   0.5581053   0.0000000), wk =   0.0266667
        k(   85) = (   0.2666667   0.4618802   0.0000000), wk =   0.0133333
        k(   86) = (   0.2666667   0.5003702   0.0000000), wk =   0.0266667
        k(   87) = (   0.2666667   0.5388603   0.0000000), wk =   0.0266667
        k(   88) = (   0.2666667   0.5773503   0.0000000), wk =   0.0133333
        k(   89) = (   0.3000000   0.5196152   0.0000000), wk =   0.0133333
        k(   90) = (   0.3000000   0.5581053   0.0000000), wk =   0.0266667
        k(   91) = (   0.3333333   0.5773503   0.0000000), wk =   0.0044444

     PseudoPot. # 1 for B  read from file:
     ./pseudo/B.UPF
     MD5 check sum: 69d4ef3dbc0509a37f66397c3ecc5321
     Pseudo is Norm-conserving + core correction, Zval =  3.0
     Generated using ONCVPSP code by D. R. Hamann
     Using radial grid of 1498 points,  4 beta functions with: 
                l(1) =   0
                l(2) =   0
                l(3) =   1
                l(4) =   1

     PseudoPot. # 2 for N  read from file:
     ./pseudo/N.UPF
     MD5 check sum: f7cfb052850314c53fa2901765c0b356
     Pseudo is Norm-conserving + core correction, Zval =  5.0
     Generated using ONCVPSP code by D. R. Hamann
     Using radial grid of 1058 points,  4 beta functions with: 
                l(1) =   0
                l(2) =   0
                l(3) =   1
                l(4) =   1

     Mode symmetry, C_3v (3m)   point group:


     Electric field:
     Dielectric constant
     Born effective charges as d Force / d E


     Atomic displacements:
     There are    8 irreducible representations

     Representation     1      1 modes -  To be done

     Representation     2      1 modes -  To be done

     Representation     3      1 modes -  To be done

     Representation     4      1 modes -  To be done

     Representation     5      2 modes -  To be done

     Representation     6      2 modes -  To be done

     Representation     7      2 modes -  To be done

     Representation     8      2 modes -  To be done


     PHONON       :      1.49s CPU      1.52s WALL


     Electric Fields Calculation

      iter #   1 total cpu time :    31.2 secs   av.it.:   8.1
      thresh= 1.000E-02 alpha_mix =  0.700 |ddv_scf|^2 =  6.010E-04

      iter #   2 total cpu time :    39.5 secs   av.it.:   8.7
      thresh= 2.452E-03 alpha_mix =  0.700 |ddv_scf|^2 =  1.180E-03

      iter #   3 total cpu time :    45.1 secs   av.it.:   5.3
      thresh= 3.435E-03 alpha_mix =  0.700 |ddv_scf|^2 =  5.398E-07

      iter #   4 total cpu time :    53.9 secs   av.it.:   9.5
      thresh= 7.347E-05 alpha_mix =  0.700 |ddv_scf|^2 =  5.818E-09

      iter #   5 total cpu time :    63.3 secs   av.it.:  10.3
      thresh= 7.628E-06 alpha_mix =  0.700 |ddv_scf|^2 =  7.673E-10

      iter #   6 total cpu time :    72.4 secs   av.it.:  10.8
      thresh= 2.770E-06 alpha_mix =  0.700 |ddv_scf|^2 =  5.238E-11

      iter #   7 total cpu time :    81.3 secs   av.it.:  10.0
      thresh= 7.237E-07 alpha_mix =  0.700 |ddv_scf|^2 =  1.220E-12

      iter #   8 total cpu time :    90.8 secs   av.it.:  11.0
      thresh= 1.105E-07 alpha_mix =  0.700 |ddv_scf|^2 =  1.896E-13

     End of electric fields calculation

          Dielectric constant in cartesian axis 

          (       1.833423224      -0.000000000       0.000000000 )
          (      -0.000000000       1.833423224       0.000000000 )
          (       0.000000000      -0.000000000       1.137042152 )

          Effective charges (d Force / dE) in cartesian axis without acoustic sum rule applied (asr)

           atom    1  B     Mean Z*:        1.86923
      Ex  (        2.67939        0.00000        0.00000 )
      Ey  (        0.00000        2.67939        0.00000 )
      Ez  (        0.00000        0.00000        0.24889 )
           atom    2  B     Mean Z*:        1.88912
      Ex  (        2.68666       -0.00000        0.00000 )
      Ey  (       -0.00000        2.68666        0.00000 )
      Ez  (        0.00000        0.00000        0.29404 )
           atom    3  N     Mean Z*:       -1.86333
      Ex  (       -2.66112       -0.00000        0.00000 )
      Ey  (        0.00000       -2.66112        0.00000 )
      Ez  (        0.00000        0.00000       -0.26775 )
           atom    4  N     Mean Z*:       -1.89469
      Ex  (       -2.70485       -0.00000        0.00000 )
      Ey  (        0.00000       -2.70485        0.00000 )
      Ez  (        0.00000       -0.00000       -0.27437 )

          Effective charges Sum: Mean:        0.00033
              0.00008       -0.00000        0.00000
             -0.00000        0.00008        0.00000
              0.00000        0.00000        0.00082

          Effective charges (d Force / dE) in cartesian axis with asr applied: 
           atom    1  B     Mean Z*:        1.86914
      E*x (        2.67937        0.00000        0.00000 )
      E*y (        0.00000        2.67937       -0.00000 )
      E*z (        0.00000        0.00000        0.24869 )
           atom    2  B     Mean Z*:        1.88904
      E*x (        2.68664        0.00000        0.00000 )
      E*y (       -0.00000        2.68664        0.00000 )
      E*z (        0.00000        0.00000        0.29384 )
           atom    3  N     Mean Z*:       -1.86341
      E*x (       -2.66114        0.00000        0.00000 )
      E*y (        0.00000       -2.66114       -0.00000 )
      E*z (        0.00000        0.00000       -0.26795 )
           atom    4  N     Mean Z*:       -1.89477
      E*x (       -2.70487       -0.00000        0.00000 )
      E*y (        0.00000       -2.70487        0.00000 )
      E*z (        0.00000       -0.00000       -0.27457 )
 
     PHONON       :   1m39.82s CPU   1m35.71s WALL

     INITIALIZATION: 
     phq_setup    :      0.00s CPU      0.01s WALL (       1 calls)
     phq_init     :      0.15s CPU      0.18s WALL (       1 calls)
 
     phq_init     :      0.15s CPU      0.18s WALL (       1 calls)
     set_drhoc    :      0.00s CPU      0.00s WALL (       1 calls)
     init_vloc    :      0.01s CPU      0.01s WALL (       1 calls)
     init_us_1    :      0.00s CPU      0.01s WALL (       1 calls)
     init_us_2    :      0.52s CPU      0.29s WALL (    1183 calls)
 
     DIELECTRIC CONSTANT AND EFFECTIVE CHARGES:
     solve_e      :     81.22s CPU     89.32s WALL (       1 calls)
     dielec       :      0.03s CPU      0.10s WALL (       1 calls)
     zstar_eu     :     17.07s CPU      4.74s WALL (       1 calls)
     psymdvscf    :      0.39s CPU      0.40s WALL (       8 calls)
     com_dvloc    :      4.60s CPU      1.00s WALL (    1092 calls)
                                        1.00s GPU  (    1092 calls)
     addcore      :      2.61s CPU      0.26s WALL (    1092 calls)
                                        0.25s GPU  (    1092 calls)
 
     dvqpsi_us    :     12.83s CPU      4.41s WALL (    1092 calls)
                                        4.40s GPU  (    1092 calls)
     dvqpsi_us_on :      5.66s CPU      0.67s WALL (    1092 calls)
 
     add_vuspsi   :      2.92s CPU      3.74s WALL (   36207 calls)
                                        3.48s GPU  (   36207 calls)
 
 
      General routines
     calbec       :      8.14s CPU      7.91s WALL (   36844 calls)
     fft          :      2.53s CPU      1.09s WALL (    2260 calls)
                                        1.02s GPU  (    2188 calls)
     ffts         :      0.08s CPU      0.14s WALL (    1092 calls)
                                        0.13s GPU  (    1092 calls)
     fftw         :     19.58s CPU     26.72s WALL (  155406 calls)
                                       25.61s GPU  (  155406 calls)
     davcio       :      3.67s CPU      2.31s WALL (   12256 calls)
     write_rec    :      0.01s CPU      0.07s WALL (       8 calls)
 
      Additional routines
     ch_psi       :     47.34s CPU     53.39s WALL (   36207 calls)
     last         :     13.43s CPU     15.36s WALL (   36207 calls)
     Hesh         :      0.35s CPU      0.40s WALL (   36207 calls)
     ch_psi_all_k :     12.25s CPU     14.60s WALL (   36207 calls)
                                       14.22s GPU  (   36207 calls)
     h_psi_bgrp   :     31.74s CPU     36.06s WALL (   36207 calls)
                                       35.83s GPU  (   36207 calls)
     h_psi        :     31.26s CPU     35.55s WALL (   36207 calls)
                                       35.30s GPU  (   36207 calls)
     h_psi:pot    :     30.30s CPU     34.52s WALL (   36207 calls)
                                       34.27s GPU  (   36207 calls)
     h_psi:calbec :      6.45s CPU      7.78s WALL (   36207 calls)
                                        7.51s GPU  (   36207 calls)
     s_psi_bgrp   :      0.60s CPU      0.55s WALL (   74871 calls)
 
 
     PHONON       :   1m39.82s CPU   1m35.71s WALL

 
   This run was terminated on:  13:44: 4  11Aug2025            

=------------------------------------------------------------------------------=
   JOB DONE.
=------------------------------------------------------------------------------=
Warning: ieee_inexact is signaling
FORTRAN STOP
Warning: ieee_inexact is signaling
FORTRAN STOP
Warning: ieee_invalid is signaling
Warning: ieee_inexact is signaling
FORTRAN STOP
Warning: ieee_inexact is signaling
FORTRAN STOP
