
     Program PWSCF v.7.4 starts on 11Aug2025 at 13:19:38 

     This program is part of the open-source Quantum ESPRESSO suite
     for quantum simulation of materials; please cite
         "P. Giannozzi et al., J. Phys.:Condens. Matter 21 395502 (2009);
         "P. Giannozzi et al., J. Phys.:Condens. Matter 29 465901 (2017);
         "P. Giannozzi et al., J. Chem. Phys. 152 154105 (2020);
          URL http://www.quantum-espresso.org", 
     in publications or presentations arising from this work. More details at
     http://www.quantum-espresso.org/quote

     Parallel version (MPI & OpenMP), running on      80 processor cores
     Number of MPI processes:                 4
     Threads/MPI process:                    20

     MPI processes distributed on     1 nodes
     818562 MiB available memory on the printing compute node when the environment starts
 
     Waiting for input...
     Reading input from standard input

     Current dimensions of program PWSCF are:
     Max number of different atomic species (ntypx) = 10
     Max number of k-points (npk) =  40000
     Max angular momentum in pseudopotentials (lmaxx) =  4
 
     R & G space division:  proc/nbgrp/npool/nimage =       4
     Subspace diagonalization in iterative solution of the eigenvalue problem:
     a serial algorithm will be used

 
     Parallelization info
     --------------------
     sticks:   dense  smooth     PW     G-vecs:    dense   smooth      PW
     Min         127     127     39                28675    28675    4735
     Max         128     128     44                28730    28730    4744
     Sum         511     511    163               114829   114829   18955
 
     Using Slab Decomposition
 


     bravais-lattice index     =            4
     lattice parameter (alat)  =       4.7451  a.u.
     unit-cell volume          =    1105.4571 (a.u.)^3
     number of atoms/cell      =            4
     number of atomic types    =            2
     number of electrons       =        16.00
     number of Kohn-Sham states=            8
     kinetic-energy cutoff     =      84.0000  Ry
     charge density cutoff     =     336.0000  Ry
     scf convergence threshold =      1.0E-10
     mixing beta               =       0.4000
     number of iterations used =            8  plain     mixing
     energy convergence thresh.=      4.0E-05
     force convergence thresh. =      1.0E-04
     press convergence thresh. =      5.0E-01
     Exchange-correlation= SLA  PW   NOGX NOGC
                           (   1   4   0   0   0   0   0)
     nstep                     =           50


     GPU acceleration is ACTIVE.  1 visible GPUs per MPI rank
     GPU-aware MPI enabled

     Message from routine print_cuda_info:
     High GPU oversubscription detected. Are you sure this is what you want?

     GPU used by master process:

        Device Number: 0
        Device name: NVIDIA GH200 120GB
        Compute capability : 90
        Ratio of single to double precision performance  : 2
        Memory Clock Rate (KHz): 2619000
        Memory Bus Width (bits): 6144
        Peak Memory Bandwidth (GB/s): ******

     celldm(1)=   4.745102  celldm(2)=   0.000000  celldm(3)=  11.947431
     celldm(4)=   0.000000  celldm(5)=   0.000000  celldm(6)=   0.000000

     crystal axes: (cart. coord. in units of alat)
               a(1) = (   1.000000   0.000000   0.000000 )  
               a(2) = (  -0.500000   0.866025   0.000000 )  
               a(3) = (   0.000000   0.000000  11.947431 )  

     reciprocal axes: (cart. coord. in units 2 pi/alat)
               b(1) = (  1.000000  0.577350 -0.000000 )  
               b(2) = (  0.000000  1.154701  0.000000 )  
               b(3) = (  0.000000 -0.000000  0.083700 )  


     PseudoPot. # 1 for B  read from file:
     ./pseudo/B.UPF
     MD5 check sum: 69d4ef3dbc0509a37f66397c3ecc5321
     Pseudo is Norm-conserving + core correction, Zval =  3.0
     Generated using ONCVPSP code by D. R. Hamann
     Using radial grid of 1498 points,  4 beta functions with: 
                l(1) =   0
                l(2) =   0
                l(3) =   1
                l(4) =   1

     PseudoPot. # 2 for N  read from file:
     ./pseudo/N.UPF
     MD5 check sum: f7cfb052850314c53fa2901765c0b356
     Pseudo is Norm-conserving + core correction, Zval =  5.0
     Generated using ONCVPSP code by D. R. Hamann
     Using radial grid of 1058 points,  4 beta functions with: 
                l(1) =   0
                l(2) =   0
                l(3) =   1
                l(4) =   1

     atomic species   valence    mass     pseudopotential
     B                 3.00    10.81100     B ( 1.00)
     N                 5.00    14.00670     N ( 1.00)

      6 Sym. Ops. (no inversion) found


                                    s                        frac. trans.

      isym =  1     identity                                     

 cryst.   s( 1) = (     1          0          0      )
                  (     0          1          0      )
                  (     0          0          1      )

 cart.    s( 1) = (  1.0000000  0.0000000  0.0000000 )
                  (  0.0000000  1.0000000  0.0000000 )
                  (  0.0000000  0.0000000  1.0000000 )


      isym =  2     120 deg rotation - cryst. axis [0,0,1]       

 cryst.   s( 2) = (     0          1          0      )
                  (    -1         -1          0      )
                  (     0          0          1      )

 cart.    s( 2) = ( -0.5000000 -0.8660254  0.0000000 )
                  (  0.8660254 -0.5000000  0.0000000 )
                  (  0.0000000  0.0000000  1.0000000 )


      isym =  3     120 deg rotation - cryst. axis [0,0,-1]      

 cryst.   s( 3) = (    -1         -1          0      )
                  (     1          0          0      )
                  (     0          0          1      )

 cart.    s( 3) = ( -0.5000000  0.8660254  0.0000000 )
                  ( -0.8660254 -0.5000000  0.0000000 )
                  (  0.0000000  0.0000000  1.0000000 )


      isym =  4     inv. 180 deg rotation - cart. axis [1,0,0]   

 cryst.   s( 4) = (    -1          0          0      )
                  (     1          1          0      )
                  (     0          0          1      )

 cart.    s( 4) = ( -1.0000000  0.0000000  0.0000000 )
                  (  0.0000000  1.0000000  0.0000000 )
                  (  0.0000000  0.0000000  1.0000000 )


      isym =  5     inv. 180 deg rotation - cryst. axis [0,1,0]  

 cryst.   s( 5) = (     1          1          0      )
                  (     0         -1          0      )
                  (     0          0          1      )

 cart.    s( 5) = (  0.5000000  0.8660254  0.0000000 )
                  (  0.8660254 -0.5000000  0.0000000 )
                  (  0.0000000  0.0000000  1.0000000 )


      isym =  6     inv. 180 deg rotation - cryst. axis [1,1,0]  

 cryst.   s( 6) = (     0         -1          0      )
                  (    -1          0          0      )
                  (     0          0          1      )

 cart.    s( 6) = (  0.5000000 -0.8660254  0.0000000 )
                  ( -0.8660254 -0.5000000  0.0000000 )
                  (  0.0000000  0.0000000  1.0000000 )


     point group C_3v (3m)  
     there are  3 classes
     the character table:

       E     2C3   3s_v 
A_1    1.00  1.00  1.00
A_2    1.00  1.00 -1.00
E      2.00 -1.00  0.00

     the symmetry operations in each class and the name of the first element:

     E        1
          identity                                               
     2C3      2    3
          120 deg rotation - cryst. axis [0,0,1]                 
     3s_v     4    5    6
          inv. 180 deg rotation - cart. axis [1,0,0]             

   Cartesian axes

     site n.     atom                  positions (alat units)
         1        B      tau(   1) = (   0.0000000   0.0000000   5.1923403  )
         2        B      tau(   2) = (  -0.0000000   0.5773503   6.7645831  )
         3        N      tau(   3) = (  -0.0000000   0.5773503   5.1733618  )
         4        N      tau(   4) = (   0.5000000   0.2886751   6.7645774  )

     -------------------------------------------------
     Parameters for Dispersion (Grimme-D2) Correction:
     -------------------------------------------------
       atom      VdW radius       C_6     

        B          2.806        108.584
        N          2.640         42.670

   Crystallographic axes

     site n.     atom                  positions (cryst. coord.)
         1        B      tau(   1) = (  0.0000000  0.0000000  0.4345989  )
         2        B      tau(   2) = (  0.3333333  0.6666667  0.5661956  )
         3        N      tau(   3) = (  0.3333333  0.6666667  0.4330104  )
         4        N      tau(   4) = (  0.6666667  0.3333333  0.5661951  )

     number of k points=    91
                       cart. coord. in units 2pi/alat
        k(    1) = (   0.0000000   0.0000000   0.0000000), wk =   0.0022222
        k(    2) = (   0.0000000   0.0384900   0.0000000), wk =   0.0133333
        k(    3) = (   0.0000000   0.0769800   0.0000000), wk =   0.0133333
        k(    4) = (   0.0000000   0.1154701   0.0000000), wk =   0.0133333
        k(    5) = (   0.0000000   0.1539601   0.0000000), wk =   0.0133333
        k(    6) = (   0.0000000   0.1924501   0.0000000), wk =   0.0133333
        k(    7) = (   0.0000000   0.2309401   0.0000000), wk =   0.0133333
        k(    8) = (   0.0000000   0.2694301   0.0000000), wk =   0.0133333
        k(    9) = (   0.0000000   0.3079201   0.0000000), wk =   0.0133333
        k(   10) = (   0.0000000   0.3464102   0.0000000), wk =   0.0133333
        k(   11) = (   0.0000000   0.3849002   0.0000000), wk =   0.0133333
        k(   12) = (   0.0000000   0.4233902   0.0000000), wk =   0.0133333
        k(   13) = (   0.0000000   0.4618802   0.0000000), wk =   0.0133333
        k(   14) = (   0.0000000   0.5003702   0.0000000), wk =   0.0133333
        k(   15) = (   0.0000000   0.5388603   0.0000000), wk =   0.0133333
        k(   16) = (   0.0000000  -0.5773503   0.0000000), wk =   0.0066667
        k(   17) = (   0.0333333   0.0577350   0.0000000), wk =   0.0133333
        k(   18) = (   0.0333333   0.0962250   0.0000000), wk =   0.0266667
        k(   19) = (   0.0333333   0.1347151   0.0000000), wk =   0.0266667
        k(   20) = (   0.0333333   0.1732051   0.0000000), wk =   0.0266667
        k(   21) = (   0.0333333   0.2116951   0.0000000), wk =   0.0266667
        k(   22) = (   0.0333333   0.2501851   0.0000000), wk =   0.0266667
        k(   23) = (   0.0333333   0.2886751   0.0000000), wk =   0.0266667
        k(   24) = (   0.0333333   0.3271652   0.0000000), wk =   0.0266667
        k(   25) = (   0.0333333   0.3656552   0.0000000), wk =   0.0266667
        k(   26) = (   0.0333333   0.4041452   0.0000000), wk =   0.0266667
        k(   27) = (   0.0333333   0.4426352   0.0000000), wk =   0.0266667
        k(   28) = (   0.0333333   0.4811252   0.0000000), wk =   0.0266667
        k(   29) = (   0.0333333   0.5196152   0.0000000), wk =   0.0266667
        k(   30) = (   0.0333333   0.5581053   0.0000000), wk =   0.0266667
        k(   31) = (   0.0666667   0.1154701   0.0000000), wk =   0.0133333
        k(   32) = (   0.0666667   0.1539601   0.0000000), wk =   0.0266667
        k(   33) = (   0.0666667   0.1924501   0.0000000), wk =   0.0266667
        k(   34) = (   0.0666667   0.2309401   0.0000000), wk =   0.0266667
        k(   35) = (   0.0666667   0.2694301   0.0000000), wk =   0.0266667
        k(   36) = (   0.0666667   0.3079201   0.0000000), wk =   0.0266667
        k(   37) = (   0.0666667   0.3464102   0.0000000), wk =   0.0266667
        k(   38) = (   0.0666667   0.3849002   0.0000000), wk =   0.0266667
        k(   39) = (   0.0666667   0.4233902   0.0000000), wk =   0.0266667
        k(   40) = (   0.0666667   0.4618802   0.0000000), wk =   0.0266667
        k(   41) = (   0.0666667   0.5003702   0.0000000), wk =   0.0266667
        k(   42) = (   0.0666667   0.5388603   0.0000000), wk =   0.0266667
        k(   43) = (   0.0666667   0.5773503   0.0000000), wk =   0.0133333
        k(   44) = (   0.1000000   0.1732051   0.0000000), wk =   0.0133333
        k(   45) = (   0.1000000   0.2116951   0.0000000), wk =   0.0266667
        k(   46) = (   0.1000000   0.2501851   0.0000000), wk =   0.0266667
        k(   47) = (   0.1000000   0.2886751   0.0000000), wk =   0.0266667
        k(   48) = (   0.1000000   0.3271652   0.0000000), wk =   0.0266667
        k(   49) = (   0.1000000   0.3656552   0.0000000), wk =   0.0266667
        k(   50) = (   0.1000000   0.4041452   0.0000000), wk =   0.0266667
        k(   51) = (   0.1000000   0.4426352   0.0000000), wk =   0.0266667
        k(   52) = (   0.1000000   0.4811252   0.0000000), wk =   0.0266667
        k(   53) = (   0.1000000   0.5196152   0.0000000), wk =   0.0266667
        k(   54) = (   0.1000000   0.5581053   0.0000000), wk =   0.0266667
        k(   55) = (   0.1333333   0.2309401   0.0000000), wk =   0.0133333
        k(   56) = (   0.1333333   0.2694301   0.0000000), wk =   0.0266667
        k(   57) = (   0.1333333   0.3079201   0.0000000), wk =   0.0266667
        k(   58) = (   0.1333333   0.3464102   0.0000000), wk =   0.0266667
        k(   59) = (   0.1333333   0.3849002   0.0000000), wk =   0.0266667
        k(   60) = (   0.1333333   0.4233902   0.0000000), wk =   0.0266667
        k(   61) = (   0.1333333   0.4618802   0.0000000), wk =   0.0266667
        k(   62) = (   0.1333333   0.5003702   0.0000000), wk =   0.0266667
        k(   63) = (   0.1333333   0.5388603   0.0000000), wk =   0.0266667
        k(   64) = (   0.1333333   0.5773503   0.0000000), wk =   0.0133333
        k(   65) = (   0.1666667   0.2886751   0.0000000), wk =   0.0133333
        k(   66) = (   0.1666667   0.3271652   0.0000000), wk =   0.0266667
        k(   67) = (   0.1666667   0.3656552   0.0000000), wk =   0.0266667
        k(   68) = (   0.1666667   0.4041452   0.0000000), wk =   0.0266667
        k(   69) = (   0.1666667   0.4426352   0.0000000), wk =   0.0266667
        k(   70) = (   0.1666667   0.4811252   0.0000000), wk =   0.0266667
        k(   71) = (   0.1666667   0.5196152   0.0000000), wk =   0.0266667
        k(   72) = (   0.1666667   0.5581053   0.0000000), wk =   0.0266667
        k(   73) = (   0.2000000   0.3464102   0.0000000), wk =   0.0133333
        k(   74) = (   0.2000000   0.3849002   0.0000000), wk =   0.0266667
        k(   75) = (   0.2000000   0.4233902   0.0000000), wk =   0.0266667
        k(   76) = (   0.2000000   0.4618802   0.0000000), wk =   0.0266667
        k(   77) = (   0.2000000   0.5003702   0.0000000), wk =   0.0266667
        k(   78) = (   0.2000000   0.5388603   0.0000000), wk =   0.0266667
        k(   79) = (   0.2000000   0.5773503   0.0000000), wk =   0.0133333
        k(   80) = (   0.2333333   0.4041452   0.0000000), wk =   0.0133333
        k(   81) = (   0.2333333   0.4426352   0.0000000), wk =   0.0266667
        k(   82) = (   0.2333333   0.4811252   0.0000000), wk =   0.0266667
        k(   83) = (   0.2333333   0.5196152   0.0000000), wk =   0.0266667
        k(   84) = (   0.2333333   0.5581053   0.0000000), wk =   0.0266667
        k(   85) = (   0.2666667   0.4618802   0.0000000), wk =   0.0133333
        k(   86) = (   0.2666667   0.5003702   0.0000000), wk =   0.0266667
        k(   87) = (   0.2666667   0.5388603   0.0000000), wk =   0.0266667
        k(   88) = (   0.2666667   0.5773503   0.0000000), wk =   0.0133333
        k(   89) = (   0.3000000   0.5196152   0.0000000), wk =   0.0133333
        k(   90) = (   0.3000000   0.5581053   0.0000000), wk =   0.0266667
        k(   91) = (   0.3333333   0.5773503   0.0000000), wk =   0.0044444

                       cryst. coord.
        k(    1) = (   0.0000000   0.0000000   0.0000000), wk =   0.0022222
        k(    2) = (   0.0000000   0.0333333   0.0000000), wk =   0.0133333
        k(    3) = (   0.0000000   0.0666667   0.0000000), wk =   0.0133333
        k(    4) = (   0.0000000   0.1000000   0.0000000), wk =   0.0133333
        k(    5) = (   0.0000000   0.1333333   0.0000000), wk =   0.0133333
        k(    6) = (   0.0000000   0.1666667   0.0000000), wk =   0.0133333
        k(    7) = (   0.0000000   0.2000000   0.0000000), wk =   0.0133333
        k(    8) = (   0.0000000   0.2333333   0.0000000), wk =   0.0133333
        k(    9) = (   0.0000000   0.2666667   0.0000000), wk =   0.0133333
        k(   10) = (   0.0000000   0.3000000   0.0000000), wk =   0.0133333
        k(   11) = (   0.0000000   0.3333333   0.0000000), wk =   0.0133333
        k(   12) = (   0.0000000   0.3666667   0.0000000), wk =   0.0133333
        k(   13) = (   0.0000000   0.4000000   0.0000000), wk =   0.0133333
        k(   14) = (   0.0000000   0.4333333   0.0000000), wk =   0.0133333
        k(   15) = (   0.0000000   0.4666667   0.0000000), wk =   0.0133333
        k(   16) = (   0.0000000  -0.5000000   0.0000000), wk =   0.0066667
        k(   17) = (   0.0333333   0.0333333   0.0000000), wk =   0.0133333
        k(   18) = (   0.0333333   0.0666667   0.0000000), wk =   0.0266667
        k(   19) = (   0.0333333   0.1000000   0.0000000), wk =   0.0266667
        k(   20) = (   0.0333333   0.1333333   0.0000000), wk =   0.0266667
        k(   21) = (   0.0333333   0.1666667   0.0000000), wk =   0.0266667
        k(   22) = (   0.0333333   0.2000000   0.0000000), wk =   0.0266667
        k(   23) = (   0.0333333   0.2333333   0.0000000), wk =   0.0266667
        k(   24) = (   0.0333333   0.2666667   0.0000000), wk =   0.0266667
        k(   25) = (   0.0333333   0.3000000   0.0000000), wk =   0.0266667
        k(   26) = (   0.0333333   0.3333333   0.0000000), wk =   0.0266667
        k(   27) = (   0.0333333   0.3666667   0.0000000), wk =   0.0266667
        k(   28) = (   0.0333333   0.4000000   0.0000000), wk =   0.0266667
        k(   29) = (   0.0333333   0.4333333   0.0000000), wk =   0.0266667
        k(   30) = (   0.0333333   0.4666667   0.0000000), wk =   0.0266667
        k(   31) = (   0.0666667   0.0666667   0.0000000), wk =   0.0133333
        k(   32) = (   0.0666667   0.1000000   0.0000000), wk =   0.0266667
        k(   33) = (   0.0666667   0.1333333   0.0000000), wk =   0.0266667
        k(   34) = (   0.0666667   0.1666667   0.0000000), wk =   0.0266667
        k(   35) = (   0.0666667   0.2000000   0.0000000), wk =   0.0266667
        k(   36) = (   0.0666667   0.2333333   0.0000000), wk =   0.0266667
        k(   37) = (   0.0666667   0.2666667   0.0000000), wk =   0.0266667
        k(   38) = (   0.0666667   0.3000000   0.0000000), wk =   0.0266667
        k(   39) = (   0.0666667   0.3333333   0.0000000), wk =   0.0266667
        k(   40) = (   0.0666667   0.3666667   0.0000000), wk =   0.0266667
        k(   41) = (   0.0666667   0.4000000   0.0000000), wk =   0.0266667
        k(   42) = (   0.0666667   0.4333333   0.0000000), wk =   0.0266667
        k(   43) = (   0.0666667   0.4666667   0.0000000), wk =   0.0133333
        k(   44) = (   0.1000000   0.1000000   0.0000000), wk =   0.0133333
        k(   45) = (   0.1000000   0.1333333   0.0000000), wk =   0.0266667
        k(   46) = (   0.1000000   0.1666667   0.0000000), wk =   0.0266667
        k(   47) = (   0.1000000   0.2000000   0.0000000), wk =   0.0266667
        k(   48) = (   0.1000000   0.2333333   0.0000000), wk =   0.0266667
        k(   49) = (   0.1000000   0.2666667   0.0000000), wk =   0.0266667
        k(   50) = (   0.1000000   0.3000000   0.0000000), wk =   0.0266667
        k(   51) = (   0.1000000   0.3333333   0.0000000), wk =   0.0266667
        k(   52) = (   0.1000000   0.3666667   0.0000000), wk =   0.0266667
        k(   53) = (   0.1000000   0.4000000   0.0000000), wk =   0.0266667
        k(   54) = (   0.1000000   0.4333333   0.0000000), wk =   0.0266667
        k(   55) = (   0.1333333   0.1333333   0.0000000), wk =   0.0133333
        k(   56) = (   0.1333333   0.1666667   0.0000000), wk =   0.0266667
        k(   57) = (   0.1333333   0.2000000   0.0000000), wk =   0.0266667
        k(   58) = (   0.1333333   0.2333333   0.0000000), wk =   0.0266667
        k(   59) = (   0.1333333   0.2666667   0.0000000), wk =   0.0266667
        k(   60) = (   0.1333333   0.3000000   0.0000000), wk =   0.0266667
        k(   61) = (   0.1333333   0.3333333   0.0000000), wk =   0.0266667
        k(   62) = (   0.1333333   0.3666667   0.0000000), wk =   0.0266667
        k(   63) = (   0.1333333   0.4000000   0.0000000), wk =   0.0266667
        k(   64) = (   0.1333333   0.4333333   0.0000000), wk =   0.0133333
        k(   65) = (   0.1666667   0.1666667   0.0000000), wk =   0.0133333
        k(   66) = (   0.1666667   0.2000000   0.0000000), wk =   0.0266667
        k(   67) = (   0.1666667   0.2333333   0.0000000), wk =   0.0266667
        k(   68) = (   0.1666667   0.2666667   0.0000000), wk =   0.0266667
        k(   69) = (   0.1666667   0.3000000   0.0000000), wk =   0.0266667
        k(   70) = (   0.1666667   0.3333333   0.0000000), wk =   0.0266667
        k(   71) = (   0.1666667   0.3666667   0.0000000), wk =   0.0266667
        k(   72) = (   0.1666667   0.4000000   0.0000000), wk =   0.0266667
        k(   73) = (   0.2000000   0.2000000   0.0000000), wk =   0.0133333
        k(   74) = (   0.2000000   0.2333333   0.0000000), wk =   0.0266667
        k(   75) = (   0.2000000   0.2666667   0.0000000), wk =   0.0266667
        k(   76) = (   0.2000000   0.3000000   0.0000000), wk =   0.0266667
        k(   77) = (   0.2000000   0.3333333   0.0000000), wk =   0.0266667
        k(   78) = (   0.2000000   0.3666667   0.0000000), wk =   0.0266667
        k(   79) = (   0.2000000   0.4000000   0.0000000), wk =   0.0133333
        k(   80) = (   0.2333333   0.2333333   0.0000000), wk =   0.0133333
        k(   81) = (   0.2333333   0.2666667   0.0000000), wk =   0.0266667
        k(   82) = (   0.2333333   0.3000000   0.0000000), wk =   0.0266667
        k(   83) = (   0.2333333   0.3333333   0.0000000), wk =   0.0266667
        k(   84) = (   0.2333333   0.3666667   0.0000000), wk =   0.0266667
        k(   85) = (   0.2666667   0.2666667   0.0000000), wk =   0.0133333
        k(   86) = (   0.2666667   0.3000000   0.0000000), wk =   0.0266667
        k(   87) = (   0.2666667   0.3333333   0.0000000), wk =   0.0266667
        k(   88) = (   0.2666667   0.3666667   0.0000000), wk =   0.0133333
        k(   89) = (   0.3000000   0.3000000   0.0000000), wk =   0.0133333
        k(   90) = (   0.3000000   0.3333333   0.0000000), wk =   0.0266667
        k(   91) = (   0.3333333   0.3333333   0.0000000), wk =   0.0044444

     Dense  grid:   114829 G-vectors     FFT dimensions: (  27,  27, 360)

     Dynamical RAM for                 wfc:       0.44 MB

     Dynamical RAM for     wfc (w. buffer):      40.35 MB

     Dynamical RAM for           str. fact:       0.88 MB

     Dynamical RAM for           local pot:       0.00 MB

     Dynamical RAM for          nlocal pot:       1.75 MB

     Dynamical RAM for                qrad:       1.68 MB

     Dynamical RAM for          rho,v,vnew:       2.82 MB

     Dynamical RAM for               rhoin:       0.94 MB

     Dynamical RAM for            rho*nmix:       7.01 MB

     Dynamical RAM for           G-vectors:       1.86 MB

     Dynamical RAM for          h,s,v(r/c):       0.01 MB

     Dynamical RAM for          <psi|beta>:       0.00 MB

     Dynamical RAM for                 psi:       0.88 MB

     Dynamical RAM for                hpsi:       0.88 MB

     Dynamical RAM for      wfcinit/wfcrot:       0.88 MB

     Estimated static dynamical RAM per process >      54.10 MB

     Estimated max dynamical RAM per process >      62.89 MB

     Estimated total dynamical RAM >     251.54 MB
 ----2D----2D----2D----2D----2D----2D----2D----2D----2D----2D----2D----2D
  The code is running with the 2D cutoff
  Please refer to:
  Sohier, T., Calandra, M., & Mauri, F. (2017), 
  Density functional perturbation theory for gated two-dimensional heterostructures:
  Theoretical developments and application to flexural phonons in graphene.
  Physical Review B, 96(7), 75448. https://doi.org/10.1103/PhysRevB.96.075448
 ----2D----2D----2D----2D----2D----2D----2D----2D----2D----2D----2D----2D

     Initial potential from superposition of free atoms

     starting charge      15.9996, renormalised to      16.0000

     negative rho (up, down):  4.237E-05 0.000E+00
     Starting wfcs are   16 randomized atomic wfcs

     total cpu time spent up to now is        2.5 secs

     per-process dynamical memory:   353.7 Mb

     Self-consistent Calculation
[tb_dev] Currently allocated     5.62E-01 Mbytes, locked:    0 /   5
[tb_pin] Currently allocated     0.00E+00 Mbytes, locked:    0 /   0

     iteration #  1     ecut=    84.00 Ry     beta= 0.40
     Davidson diagonalization with overlap

---- Real-time Memory Report at c_bands before calling an iterative solver
           845 MiB given to the printing process from OS
           345 MiB allocation reported by mallinfo(arena+hblkhd)
        813327 MiB available memory on the node where the printing process lives
     GPU memory used/free/total (MiB): 2034 / 94733 / 96768
------------------
     ethr =  1.00E-02,  avg # of iterations =  2.0

     negative rho (up, down):  1.174E-05 0.000E+00

     total cpu time spent up to now is        3.9 secs

     total energy              =     -53.57446499 Ry
     estimated scf accuracy    <       0.80422772 Ry
[tb_dev] Currently allocated     1.53E-05 Mbytes, locked:    0 /   1
[tb_pin] Currently allocated     0.00E+00 Mbytes, locked:    0 /   0

     iteration #  2     ecut=    84.00 Ry     beta= 0.40
     Davidson diagonalization with overlap

---- Real-time Memory Report at c_bands before calling an iterative solver
           849 MiB given to the printing process from OS
           363 MiB allocation reported by mallinfo(arena+hblkhd)
        813276 MiB available memory on the node where the printing process lives
     GPU memory used/free/total (MiB): 2038 / 94729 / 96768
------------------
     ethr =  5.03E-03,  avg # of iterations =  2.0

     negative rho (up, down):  4.042E-06 0.000E+00

     total cpu time spent up to now is        4.7 secs

     total energy              =     -53.68617060 Ry
     estimated scf accuracy    <       0.06232896 Ry
[tb_dev] Currently allocated     1.53E-05 Mbytes, locked:    0 /   1
[tb_pin] Currently allocated     0.00E+00 Mbytes, locked:    0 /   0

     iteration #  3     ecut=    84.00 Ry     beta= 0.40
     Davidson diagonalization with overlap

---- Real-time Memory Report at c_bands before calling an iterative solver
           852 MiB given to the printing process from OS
           363 MiB allocation reported by mallinfo(arena+hblkhd)
        813275 MiB available memory on the node where the printing process lives
     GPU memory used/free/total (MiB): 2038 / 94729 / 96768
------------------
     ethr =  3.90E-04,  avg # of iterations =  4.3

     negative rho (up, down):  2.778E-06 0.000E+00

     total cpu time spent up to now is        5.8 secs

     total energy              =     -53.69403864 Ry
     estimated scf accuracy    <       0.02990523 Ry
[tb_dev] Currently allocated     1.53E-05 Mbytes, locked:    0 /   1
[tb_pin] Currently allocated     0.00E+00 Mbytes, locked:    0 /   0

     iteration #  4     ecut=    84.00 Ry     beta= 0.40
     Davidson diagonalization with overlap

---- Real-time Memory Report at c_bands before calling an iterative solver
           863 MiB given to the printing process from OS
           363 MiB allocation reported by mallinfo(arena+hblkhd)
        813241 MiB available memory on the node where the printing process lives
     GPU memory used/free/total (MiB): 2039 / 94728 / 96768
------------------
     ethr =  1.87E-04,  avg # of iterations =  3.2

     negative rho (up, down):  3.606E-07 0.000E+00

     total cpu time spent up to now is        6.6 secs

     total energy              =     -53.69930758 Ry
     estimated scf accuracy    <       0.02754979 Ry
[tb_dev] Currently allocated     1.53E-05 Mbytes, locked:    0 /   1
[tb_pin] Currently allocated     0.00E+00 Mbytes, locked:    0 /   0

     iteration #  5     ecut=    84.00 Ry     beta= 0.40
     Davidson diagonalization with overlap

---- Real-time Memory Report at c_bands before calling an iterative solver
           863 MiB given to the printing process from OS
           365 MiB allocation reported by mallinfo(arena+hblkhd)
        813232 MiB available memory on the node where the printing process lives
     GPU memory used/free/total (MiB): 2039 / 94728 / 96768
------------------
     ethr =  1.72E-04,  avg # of iterations =  1.8

     negative rho (up, down):  3.532E-07 0.000E+00

     total cpu time spent up to now is        7.2 secs

     total energy              =     -53.70026157 Ry
     estimated scf accuracy    <       0.00429613 Ry
[tb_dev] Currently allocated     1.53E-05 Mbytes, locked:    0 /   1
[tb_pin] Currently allocated     0.00E+00 Mbytes, locked:    0 /   0

     iteration #  6     ecut=    84.00 Ry     beta= 0.40
     Davidson diagonalization with overlap

---- Real-time Memory Report at c_bands before calling an iterative solver
           863 MiB given to the printing process from OS
           366 MiB allocation reported by mallinfo(arena+hblkhd)
        813232 MiB available memory on the node where the printing process lives
     GPU memory used/free/total (MiB): 2039 / 94728 / 96768
------------------
     ethr =  2.69E-05,  avg # of iterations =  3.6

     negative rho (up, down):  2.499E-07 0.000E+00

     total cpu time spent up to now is        8.2 secs

     total energy              =     -53.70161598 Ry
     estimated scf accuracy    <       0.00034523 Ry
[tb_dev] Currently allocated     1.53E-05 Mbytes, locked:    0 /   1
[tb_pin] Currently allocated     0.00E+00 Mbytes, locked:    0 /   0

     iteration #  7     ecut=    84.00 Ry     beta= 0.40
     Davidson diagonalization with overlap

---- Real-time Memory Report at c_bands before calling an iterative solver
           866 MiB given to the printing process from OS
           367 MiB allocation reported by mallinfo(arena+hblkhd)
        813207 MiB available memory on the node where the printing process lives
     GPU memory used/free/total (MiB): 2039 / 94728 / 96768
------------------
     ethr =  2.16E-06,  avg # of iterations =  2.5

     negative rho (up, down):  1.830E-07 0.000E+00

     total cpu time spent up to now is        8.9 secs

     total energy              =     -53.70132369 Ry
     estimated scf accuracy    <       0.00088690 Ry
[tb_dev] Currently allocated     1.53E-05 Mbytes, locked:    0 /   1
[tb_pin] Currently allocated     0.00E+00 Mbytes, locked:    0 /   0

     iteration #  8     ecut=    84.00 Ry     beta= 0.40
     Davidson diagonalization with overlap

---- Real-time Memory Report at c_bands before calling an iterative solver
           869 MiB given to the printing process from OS
           367 MiB allocation reported by mallinfo(arena+hblkhd)
        813206 MiB available memory on the node where the printing process lives
     GPU memory used/free/total (MiB): 2039 / 94728 / 96768
------------------
     ethr =  2.16E-06,  avg # of iterations =  2.5

     negative rho (up, down):  5.947E-08 0.000E+00

     total cpu time spent up to now is        9.7 secs

     total energy              =     -53.70143837 Ry
     estimated scf accuracy    <       0.00006121 Ry
[tb_dev] Currently allocated     1.53E-05 Mbytes, locked:    0 /   1
[tb_pin] Currently allocated     0.00E+00 Mbytes, locked:    0 /   0

     iteration #  9     ecut=    84.00 Ry     beta= 0.40
     Davidson diagonalization with overlap

---- Real-time Memory Report at c_bands before calling an iterative solver
           869 MiB given to the printing process from OS
           368 MiB allocation reported by mallinfo(arena+hblkhd)
        813204 MiB available memory on the node where the printing process lives
     GPU memory used/free/total (MiB): 2039 / 94728 / 96768
------------------
     ethr =  3.83E-07,  avg # of iterations =  3.8

     total cpu time spent up to now is       10.6 secs

     total energy              =     -53.70144732 Ry
     estimated scf accuracy    <       0.00001408 Ry
[tb_dev] Currently allocated     1.53E-05 Mbytes, locked:    0 /   1
[tb_pin] Currently allocated     0.00E+00 Mbytes, locked:    0 /   0

     iteration # 10     ecut=    84.00 Ry     beta= 0.40
     Davidson diagonalization with overlap

---- Real-time Memory Report at c_bands before calling an iterative solver
           869 MiB given to the printing process from OS
           369 MiB allocation reported by mallinfo(arena+hblkhd)
        813176 MiB available memory on the node where the printing process lives
     GPU memory used/free/total (MiB): 2039 / 94728 / 96768
------------------
     ethr =  8.80E-08,  avg # of iterations =  2.9

     total cpu time spent up to now is       11.5 secs

     total energy              =     -53.70145374 Ry
     estimated scf accuracy    <       0.00000264 Ry
[tb_dev] Currently allocated     1.53E-05 Mbytes, locked:    0 /   1
[tb_pin] Currently allocated     0.00E+00 Mbytes, locked:    0 /   0

     iteration # 11     ecut=    84.00 Ry     beta= 0.40
     Davidson diagonalization with overlap

---- Real-time Memory Report at c_bands before calling an iterative solver
           872 MiB given to the printing process from OS
           370 MiB allocation reported by mallinfo(arena+hblkhd)
        813176 MiB available memory on the node where the printing process lives
     GPU memory used/free/total (MiB): 2039 / 94728 / 96768
------------------
     ethr =  1.65E-08,  avg # of iterations =  5.6

     total cpu time spent up to now is       12.8 secs

     total energy              =     -53.70144870 Ry
     estimated scf accuracy    <       0.00002308 Ry
[tb_dev] Currently allocated     1.53E-05 Mbytes, locked:    0 /   1
[tb_pin] Currently allocated     0.00E+00 Mbytes, locked:    0 /   0

     iteration # 12     ecut=    84.00 Ry     beta= 0.40
     Davidson diagonalization with overlap

---- Real-time Memory Report at c_bands before calling an iterative solver
           872 MiB given to the printing process from OS
           370 MiB allocation reported by mallinfo(arena+hblkhd)
        813174 MiB available memory on the node where the printing process lives
     GPU memory used/free/total (MiB): 2039 / 94728 / 96768
------------------
     ethr =  1.65E-08,  avg # of iterations =  4.0

     total cpu time spent up to now is       13.8 secs

     total energy              =     -53.70145087 Ry
     estimated scf accuracy    <       0.00000119 Ry
[tb_dev] Currently allocated     1.53E-05 Mbytes, locked:    0 /   1
[tb_pin] Currently allocated     0.00E+00 Mbytes, locked:    0 /   0

     iteration # 13     ecut=    84.00 Ry     beta= 0.40
     Davidson diagonalization with overlap

---- Real-time Memory Report at c_bands before calling an iterative solver
           872 MiB given to the printing process from OS
           370 MiB allocation reported by mallinfo(arena+hblkhd)
        813173 MiB available memory on the node where the printing process lives
     GPU memory used/free/total (MiB): 2039 / 94728 / 96768
------------------
     ethr =  7.45E-09,  avg # of iterations =  3.4

     total cpu time spent up to now is       14.7 secs

     total energy              =     -53.70145134 Ry
     estimated scf accuracy    <       0.00000044 Ry
[tb_dev] Currently allocated     1.53E-05 Mbytes, locked:    0 /   1
[tb_pin] Currently allocated     0.00E+00 Mbytes, locked:    0 /   0

     iteration # 14     ecut=    84.00 Ry     beta= 0.40
     Davidson diagonalization with overlap

---- Real-time Memory Report at c_bands before calling an iterative solver
           872 MiB given to the printing process from OS
           370 MiB allocation reported by mallinfo(arena+hblkhd)
        813172 MiB available memory on the node where the printing process lives
     GPU memory used/free/total (MiB): 2039 / 94728 / 96768
------------------
     ethr =  2.75E-09,  avg # of iterations =  2.0

     total cpu time spent up to now is       15.3 secs

     total energy              =     -53.70145139 Ry
     estimated scf accuracy    <       0.00000005 Ry
[tb_dev] Currently allocated     1.53E-05 Mbytes, locked:    0 /   1
[tb_pin] Currently allocated     0.00E+00 Mbytes, locked:    0 /   0

     iteration # 15     ecut=    84.00 Ry     beta= 0.40
     Davidson diagonalization with overlap

---- Real-time Memory Report at c_bands before calling an iterative solver
           873 MiB given to the printing process from OS
           370 MiB allocation reported by mallinfo(arena+hblkhd)
        813172 MiB available memory on the node where the printing process lives
     GPU memory used/free/total (MiB): 2039 / 94728 / 96768
------------------
     ethr =  2.88E-10,  avg # of iterations =  2.1

     total cpu time spent up to now is       16.0 secs

     total energy              =     -53.70145141 Ry
     estimated scf accuracy    <          5.3E-09 Ry
[tb_dev] Currently allocated     1.53E-05 Mbytes, locked:    0 /   1
[tb_pin] Currently allocated     0.00E+00 Mbytes, locked:    0 /   0

     iteration # 16     ecut=    84.00 Ry     beta= 0.40
     Davidson diagonalization with overlap

---- Real-time Memory Report at c_bands before calling an iterative solver
           873 MiB given to the printing process from OS
           370 MiB allocation reported by mallinfo(arena+hblkhd)
        813166 MiB available memory on the node where the printing process lives
     GPU memory used/free/total (MiB): 2039 / 94728 / 96768
------------------
     ethr =  3.32E-11,  avg # of iterations =  3.8

     total cpu time spent up to now is       17.0 secs

     total energy              =     -53.70145140 Ry
     estimated scf accuracy    <       0.00000003 Ry
[tb_dev] Currently allocated     1.53E-05 Mbytes, locked:    0 /   1
[tb_pin] Currently allocated     0.00E+00 Mbytes, locked:    0 /   0

     iteration # 17     ecut=    84.00 Ry     beta= 0.40
     Davidson diagonalization with overlap

---- Real-time Memory Report at c_bands before calling an iterative solver
           873 MiB given to the printing process from OS
           370 MiB allocation reported by mallinfo(arena+hblkhd)
        813164 MiB available memory on the node where the printing process lives
     GPU memory used/free/total (MiB): 2039 / 94728 / 96768
------------------
     ethr =  3.32E-11,  avg # of iterations =  3.0

     total cpu time spent up to now is       17.8 secs

     total energy              =     -53.70145140 Ry
     estimated scf accuracy    <          3.1E-09 Ry
[tb_dev] Currently allocated     1.53E-05 Mbytes, locked:    0 /   1
[tb_pin] Currently allocated     0.00E+00 Mbytes, locked:    0 /   0

     iteration # 18     ecut=    84.00 Ry     beta= 0.40
     Davidson diagonalization with overlap

---- Real-time Memory Report at c_bands before calling an iterative solver
           873 MiB given to the printing process from OS
           370 MiB allocation reported by mallinfo(arena+hblkhd)
        813163 MiB available memory on the node where the printing process lives
     GPU memory used/free/total (MiB): 2039 / 94728 / 96768
------------------
     ethr =  1.91E-11,  avg # of iterations =  3.1

     total cpu time spent up to now is       18.7 secs

     total energy              =     -53.70145140 Ry
     estimated scf accuracy    <          2.8E-10 Ry
[tb_dev] Currently allocated     1.53E-05 Mbytes, locked:    0 /   1
[tb_pin] Currently allocated     0.00E+00 Mbytes, locked:    0 /   0

     iteration # 19     ecut=    84.00 Ry     beta= 0.40
     Davidson diagonalization with overlap

---- Real-time Memory Report at c_bands before calling an iterative solver
           873 MiB given to the printing process from OS
           370 MiB allocation reported by mallinfo(arena+hblkhd)
        813162 MiB available memory on the node where the printing process lives
     GPU memory used/free/total (MiB): 2039 / 94728 / 96768
------------------
     ethr =  1.74E-12,  avg # of iterations =  5.2

     total cpu time spent up to now is       19.9 secs

     total energy              =     -53.70145140 Ry
     estimated scf accuracy    <          6.4E-10 Ry
[tb_dev] Currently allocated     1.53E-05 Mbytes, locked:    0 /   1
[tb_pin] Currently allocated     0.00E+00 Mbytes, locked:    0 /   0

     iteration # 20     ecut=    84.00 Ry     beta= 0.40
     Davidson diagonalization with overlap

---- Real-time Memory Report at c_bands before calling an iterative solver
           873 MiB given to the printing process from OS
           370 MiB allocation reported by mallinfo(arena+hblkhd)
        813161 MiB available memory on the node where the printing process lives
     GPU memory used/free/total (MiB): 2039 / 94728 / 96768
------------------
     ethr =  1.74E-12,  avg # of iterations =  2.5

     total cpu time spent up to now is       20.7 secs

     End of self-consistent calculation

          k = 0.0000 0.0000 0.0000 ( 14157 PWs)   bands (ev):

   -23.7084 -23.5269 -11.7254 -11.2516  -7.6783  -7.6783  -7.4887  -7.4887

     occupation numbers 
     1.0000   1.0000   1.0000   1.0000   1.0000   1.0000   1.0000   1.0000

          k = 0.0000 0.0385 0.0000 ( 14192 PWs)   bands (ev):

   -23.6870 -23.5056 -11.6962 -11.2232  -7.7695  -7.7216  -7.5799  -7.5320

     occupation numbers 
     1.0000   1.0000   1.0000   1.0000   1.0000   1.0000   1.0000   1.0000

          k = 0.0000 0.0770 0.0000 ( 14202 PWs)   bands (ev):

   -23.6232 -23.4418 -11.6089 -11.1384  -8.0341  -7.8468  -7.8449  -7.6571

     occupation numbers 
     1.0000   1.0000   1.0000   1.0000   1.0000   1.0000   1.0000   1.0000

          k = 0.0000 0.1155 0.0000 ( 14220 PWs)   bands (ev):

   -23.5173 -23.3360 -11.4640 -10.9977  -8.4493  -8.2606  -8.0409  -7.8512

     occupation numbers 
     1.0000   1.0000   1.0000   1.0000   1.0000   1.0000   1.0000   1.0000

          k = 0.0000 0.1540 0.0000 ( 14282 PWs)   bands (ev):

   -23.3704 -23.1891 -11.2626 -10.8024  -8.9844  -8.7961  -8.2864  -8.0966

     occupation numbers 
     1.0000   1.0000   1.0000   1.0000   1.0000   1.0000   1.0000   1.0000

          k = 0.0000 0.1925 0.0000 ( 14306 PWs)   bands (ev):

   -23.1837 -23.0025 -11.0062 -10.5549  -9.6076  -9.4192  -8.5643  -8.3745

     occupation numbers 
     1.0000   1.0000   1.0000   1.0000   1.0000   1.0000   1.0000   1.0000

          k = 0.0000 0.2309 0.0000 ( 14328 PWs)   bands (ev):

   -22.9595 -22.7784 -10.6975 -10.3072 -10.2533 -10.0862  -8.8572  -8.6673

     occupation numbers 
     1.0000   1.0000   1.0000   1.0000   1.0000   1.0000   1.0000   1.0000

          k = 0.0000 0.2694 0.0000 ( 14334 PWs)   bands (ev):

   -22.7005 -22.5195 -11.0076 -10.8245 -10.3368  -9.9008  -9.1501  -8.9601

     occupation numbers 
     1.0000   1.0000   1.0000   1.0000   1.0000   1.0000   1.0000   1.0000

          k = 0.0000 0.3079 0.0000 ( 14370 PWs)   bands (ev):

   -22.4111 -22.2303 -11.7326 -11.5489  -9.9331  -9.5139  -9.4306  -9.2405

     occupation numbers 
     1.0000   1.0000   1.0000   1.0000   1.0000   1.0000   1.0000   1.0000

          k = 0.0000 0.3464 0.0000 ( 14396 PWs)   bands (ev):

   -22.0975 -21.9168 -12.4476 -12.2640  -9.6891  -9.4989  -9.4909  -9.0906

     occupation numbers 
     1.0000   1.0000   1.0000   1.0000   1.0000   1.0000   1.0000   1.0000

          k = 0.0000 0.3849 0.0000 ( 14396 PWs)   bands (ev):

   -21.7686 -21.5880 -13.1320 -12.9487  -9.9181  -9.7279  -9.0204  -8.6435

     occupation numbers 
     1.0000   1.0000   1.0000   1.0000   1.0000   1.0000   1.0000   1.0000

          k = 0.0000 0.4234 0.0000 ( 14414 PWs)   bands (ev):

   -21.4382 -21.2577 -13.7635 -13.5805 -10.1121  -9.9219  -8.5377  -8.1899

     occupation numbers 
     1.0000   1.0000   1.0000   1.0000   1.0000   1.0000   1.0000   1.0000

          k = 0.0000 0.4619 0.0000 ( 14402 PWs)   bands (ev):

   -21.1261 -20.9458 -14.3156 -14.1329 -10.2669 -10.0766  -8.0681  -7.7567

     occupation numbers 
     1.0000   1.0000   1.0000   1.0000   1.0000   1.0000   1.0000   1.0000

          k = 0.0000 0.5004 0.0000 ( 14412 PWs)   bands (ev):

   -20.8611 -20.6809 -14.7552 -14.5727 -10.3794 -10.1891  -7.6521  -7.3848

     occupation numbers 
     1.0000   1.0000   1.0000   1.0000   1.0000   1.0000   1.0000   1.0000

          k = 0.0000 0.5389 0.0000 ( 14406 PWs)   bands (ev):

   -20.6788 -20.4988 -15.0433 -14.8610 -10.4477 -10.2574  -7.3510  -7.1281

     occupation numbers 
     1.0000   1.0000   1.0000   1.0000   1.0000   1.0000   1.0000   1.0000

          k = 0.0000-0.5774 0.0000 ( 14434 PWs)   bands (ev):

   -20.6132 -20.4332 -15.1445 -14.9622 -10.4706 -10.2803  -7.2378  -7.0362

     occupation numbers 
     1.0000   1.0000   1.0000   1.0000   1.0000   1.0000   1.0000   1.0000

          k = 0.0333 0.0577 0.0000 ( 14195 PWs)   bands (ev):

   -23.6444 -23.4630 -11.6380 -11.1666  -7.9451  -7.8081  -7.7558  -7.6184

     occupation numbers 
     1.0000   1.0000   1.0000   1.0000   1.0000   1.0000   1.0000   1.0000

          k = 0.0333 0.0962 0.0000 ( 14204 PWs)   bands (ev):

   -23.5596 -23.3782 -11.5219 -11.0538  -8.2793  -8.0904  -7.9734  -7.7837

     occupation numbers 
     1.0000   1.0000   1.0000   1.0000   1.0000   1.0000   1.0000   1.0000

          k = 0.0333 0.1347 0.0000 ( 14255 PWs)   bands (ev):

   -23.4331 -23.2518 -11.3487 -10.8858  -8.7474  -8.5590  -8.2003  -8.0105

     occupation numbers 
     1.0000   1.0000   1.0000   1.0000   1.0000   1.0000   1.0000   1.0000

          k = 0.0333 0.1732 0.0000 ( 14298 PWs)   bands (ev):

   -23.2663 -23.0851 -11.1197 -10.6642  -9.3195  -9.1313  -8.4691  -8.2793

     occupation numbers 
     1.0000   1.0000   1.0000   1.0000   1.0000   1.0000   1.0000   1.0000

          k = 0.0333 0.2117 0.0000 ( 14324 PWs)   bands (ev):

   -23.0608 -22.8797 -10.8369 -10.3938  -9.9650  -9.7757  -8.7609  -8.5711

     occupation numbers 
     1.0000   1.0000   1.0000   1.0000   1.0000   1.0000   1.0000   1.0000

          k = 0.0333 0.2502 0.0000 ( 14322 PWs)   bands (ev):

   -22.8190 -22.6380 -10.6640 -10.5038 -10.4784 -10.0555  -9.0591  -8.8691

     occupation numbers 
     1.0000   1.0000   1.0000   1.0000   1.0000   1.0000   1.0000   1.0000

          k = 0.0333 0.2887 0.0000 ( 14340 PWs)   bands (ev):

   -22.5446 -22.3637 -11.3780 -11.1943 -10.1199  -9.6932  -9.3498  -9.1597

     occupation numbers 
     1.0000   1.0000   1.0000   1.0000   1.0000   1.0000   1.0000   1.0000

          k = 0.0333 0.3272 0.0000 ( 14372 PWs)   bands (ev):

   -22.2426 -22.0618 -12.0953 -11.9116  -9.6964  -9.6225  -9.4332  -9.2861

     occupation numbers 
     1.0000   1.0000   1.0000   1.0000   1.0000   1.0000   1.0000   1.0000

          k = 0.0333 0.3657 0.0000 ( 14380 PWs)   bands (ev):

   -21.9204 -21.7398 -12.7933 -12.6098  -9.8687  -9.6788  -9.2389  -8.8503

     occupation numbers 
     1.0000   1.0000   1.0000   1.0000   1.0000   1.0000   1.0000   1.0000

          k = 0.0333 0.4041 0.0000 ( 14415 PWs)   bands (ev):

   -21.5893 -21.4088 -13.4508 -13.2676 -10.0819  -9.8919  -8.7605  -8.3980

     occupation numbers 
     1.0000   1.0000   1.0000   1.0000   1.0000   1.0000   1.0000   1.0000

          k = 0.0333 0.4426 0.0000 ( 14401 PWs)   bands (ev):

   -21.2657 -21.0853 -14.0436 -13.8607 -10.2575 -10.0674  -8.2811  -7.9512

     occupation numbers 
     1.0000   1.0000   1.0000   1.0000   1.0000   1.0000   1.0000   1.0000

          k = 0.0333 0.4811 0.0000 ( 14402 PWs)   bands (ev):

   -20.9737 -20.7935 -14.5419 -14.3593 -10.3919 -10.2018  -7.8328  -7.5433

     occupation numbers 
     1.0000   1.0000   1.0000   1.0000   1.0000   1.0000   1.0000   1.0000

          k = 0.0333 0.5196 0.0000 ( 14404 PWs)   bands (ev):

   -20.7459 -20.5659 -14.9093 -14.7268 -10.4828 -10.2927  -7.4661  -7.2224

     occupation numbers 
     1.0000   1.0000   1.0000   1.0000   1.0000   1.0000   1.0000   1.0000

          k = 0.0333 0.5581 0.0000 ( 14412 PWs)   bands (ev):

   -20.6189 -20.4389 -15.1067 -14.9243 -10.5286 -10.3385  -7.2509  -7.0437

     occupation numbers 
     1.0000   1.0000   1.0000   1.0000   1.0000   1.0000   1.0000   1.0000

          k = 0.0667 0.1155 0.0000 ( 14213 PWs)   bands (ev):

   -23.4541 -23.2728 -11.3775 -10.9137  -8.6568  -8.4682  -8.1812  -7.9915

     occupation numbers 
     1.0000   1.0000   1.0000   1.0000   1.0000   1.0000   1.0000   1.0000

          k = 0.0667 0.1540 0.0000 ( 14255 PWs)   bands (ev):

   -23.3078 -23.1266 -11.1767 -10.7192  -9.1467  -8.9585  -8.4466  -8.2569

     occupation numbers 
     1.0000   1.0000   1.0000   1.0000   1.0000   1.0000   1.0000   1.0000

          k = 0.0667 0.1925 0.0000 ( 14306 PWs)   bands (ev):

   -23.1220 -22.9408 -10.9212 -10.4732  -9.7259  -9.5374  -8.7451  -8.5553

     occupation numbers 
     1.0000   1.0000   1.0000   1.0000   1.0000   1.0000   1.0000   1.0000

          k = 0.0667 0.2309 0.0000 ( 14314 PWs)   bands (ev):

   -22.8988 -22.7177 -10.6142 -10.3737 -10.2300 -10.1224  -9.0560  -8.8661

     occupation numbers 
     1.0000   1.0000   1.0000   1.0000   1.0000   1.0000   1.0000   1.0000

          k = 0.0667 0.2694 0.0000 ( 14336 PWs)   bands (ev):

   -22.6411 -22.4601 -11.0564 -10.8728 -10.2546  -9.8224  -9.3632  -9.1731

     occupation numbers 
     1.0000   1.0000   1.0000   1.0000   1.0000   1.0000   1.0000   1.0000

          k = 0.0667 0.3079 0.0000 ( 14345 PWs)   bands (ev):

   -22.3533 -22.1724 -11.7563 -11.5723  -9.8526  -9.6550  -9.4753  -9.4259

     occupation numbers 
     1.0000   1.0000   1.0000   1.0000   1.0000   1.0000   1.0000   1.0000

          k = 0.0667 0.3464 0.0000 ( 14379 PWs)   bands (ev):

   -22.0415 -21.8608 -12.4512 -12.2675  -9.9217  -9.7327  -9.4121  -9.0144

     occupation numbers 
     1.0000   1.0000   1.0000   1.0000   1.0000   1.0000   1.0000   1.0000

          k = 0.0667 0.3849 0.0000 ( 14401 PWs)   bands (ev):

   -21.7148 -21.5342 -13.1196 -12.9362 -10.1566  -9.9673  -8.9442  -8.5701

     occupation numbers 
     1.0000   1.0000   1.0000   1.0000   1.0000   1.0000   1.0000   1.0000

          k = 0.0667 0.4234 0.0000 ( 14411 PWs)   bands (ev):

   -21.3868 -21.2064 -13.7384 -13.5552 -10.3547 -10.1653  -8.4643  -8.1194

     occupation numbers 
     1.0000   1.0000   1.0000   1.0000   1.0000   1.0000   1.0000   1.0000

          k = 0.0667 0.4619 0.0000 ( 14405 PWs)   bands (ev):

   -21.0775 -20.8973 -14.2805 -14.0976 -10.5123 -10.3227  -7.9978  -7.6891

     occupation numbers 
     1.0000   1.0000   1.0000   1.0000   1.0000   1.0000   1.0000   1.0000

          k = 0.0667 0.5004 0.0000 ( 14395 PWs)   bands (ev):

   -20.8152 -20.6350 -14.7125 -14.5298 -10.6266 -10.4370  -7.5850  -7.3199

     occupation numbers 
     1.0000   1.0000   1.0000   1.0000   1.0000   1.0000   1.0000   1.0000

          k = 0.0667 0.5389 0.0000 ( 14394 PWs)   bands (ev):

   -20.6350 -20.4550 -14.9958 -14.8133 -10.6958 -10.5062  -7.2866  -7.0652

     occupation numbers 
     1.0000   1.0000   1.0000   1.0000   1.0000   1.0000   1.0000   1.0000

          k = 0.0667 0.5774 0.0000 ( 14402 PWs)   bands (ev):

   -20.5702 -20.3902 -15.0952 -14.9127 -10.7190 -10.5294  -7.1745  -6.9740

     occupation numbers 
     1.0000   1.0000   1.0000   1.0000   1.0000   1.0000   1.0000   1.0000

          k = 0.1000 0.1732 0.0000 ( 14271 PWs)   bands (ev):

   -23.1424 -22.9613 -10.9494 -10.5000  -9.6324  -9.4441  -8.7531  -8.5633

     occupation numbers 
     1.0000   1.0000   1.0000   1.0000   1.0000   1.0000   1.0000   1.0000

          k = 0.1000 0.2117 0.0000 ( 14295 PWs)   bands (ev):

   -22.9388 -22.7577 -10.6690 -10.2486 -10.1811  -9.9953  -9.0879  -8.8981

     occupation numbers 
     1.0000   1.0000   1.0000   1.0000   1.0000   1.0000   1.0000   1.0000

          k = 0.1000 0.2502 0.0000 ( 14319 PWs)   bands (ev):

   -22.6994 -22.5185 -10.8125 -10.6291 -10.3357  -9.9001  -9.4253  -9.2350

     occupation numbers 
     1.0000   1.0000   1.0000   1.0000   1.0000   1.0000   1.0000   1.0000

          k = 0.1000 0.2887 0.0000 ( 14346 PWs)   bands (ev):

   -22.4279 -22.2471 -11.4652 -11.2810  -9.9579  -9.7483  -9.5775  -9.5174

     occupation numbers 
     1.0000   1.0000   1.0000   1.0000   1.0000   1.0000   1.0000   1.0000

          k = 0.1000 0.3272 0.0000 ( 14379 PWs)   bands (ev):

   -22.1294 -21.9487 -12.1325 -11.9484 -10.0450  -9.8571  -9.5374  -9.1332

     occupation numbers 
     1.0000   1.0000   1.0000   1.0000   1.0000   1.0000   1.0000   1.0000

          k = 0.1000 0.3657 0.0000 ( 14410 PWs)   bands (ev):

   -21.8115 -21.6309 -12.7911 -12.6073 -10.3086 -10.1201  -9.0849  -8.7022

     occupation numbers 
     1.0000   1.0000   1.0000   1.0000   1.0000   1.0000   1.0000   1.0000

          k = 0.1000 0.4041 0.0000 ( 14418 PWs)   bands (ev):

   -21.4853 -21.3048 -13.4175 -13.2340 -10.5343 -10.3456  -8.6120  -8.2555

     occupation numbers 
     1.0000   1.0000   1.0000   1.0000   1.0000   1.0000   1.0000   1.0000

          k = 0.1000 0.4426 0.0000 ( 14416 PWs)   bands (ev):

   -21.1671 -20.9868 -13.9858 -13.8025 -10.7184 -10.5296  -8.1387  -7.8147

     occupation numbers 
     1.0000   1.0000   1.0000   1.0000   1.0000   1.0000   1.0000   1.0000

          k = 0.1000 0.4811 0.0000 ( 14416 PWs)   bands (ev):

   -20.8809 -20.7007 -14.4652 -14.2822 -10.8584 -10.6697  -7.6971  -7.4128

     occupation numbers 
     1.0000   1.0000   1.0000   1.0000   1.0000   1.0000   1.0000   1.0000

          k = 0.1000 0.5196 0.0000 ( 14389 PWs)   bands (ev):

   -20.6582 -20.4782 -14.8192 -14.6364 -10.9527 -10.7639  -7.3368  -7.0970

     occupation numbers 
     1.0000   1.0000   1.0000   1.0000   1.0000   1.0000   1.0000   1.0000

          k = 0.1000 0.5581 0.0000 ( 14403 PWs)   bands (ev):

   -20.5344 -20.3544 -15.0094 -14.8267 -11.0001 -10.8113  -7.1258  -6.9212

     occupation numbers 
     1.0000   1.0000   1.0000   1.0000   1.0000   1.0000   1.0000   1.0000

          k = 0.1333 0.2309 0.0000 ( 14311 PWs)   bands (ev):

   -22.7190 -22.5380 -10.7163 -10.5331 -10.3626  -9.9259  -9.4617  -9.2714

     occupation numbers 
     1.0000   1.0000   1.0000   1.0000   1.0000   1.0000   1.0000   1.0000

          k = 0.1333 0.2694 0.0000 ( 14331 PWs)   bands (ev):

   -22.4655 -22.2846 -11.2834 -11.0990 -10.0108  -9.8338  -9.6592  -9.5719

     occupation numbers 
     1.0000   1.0000   1.0000   1.0000   1.0000   1.0000   1.0000   1.0000

          k = 0.1333 0.3079 0.0000 ( 14363 PWs)   bands (ev):

   -22.1828 -22.0020 -11.8855 -11.7011 -10.1804  -9.9935  -9.6133  -9.2050

     occupation numbers 
     1.0000   1.0000   1.0000   1.0000   1.0000   1.0000   1.0000   1.0000

          k = 0.1333 0.3464 0.0000 ( 14402 PWs)   bands (ev):

   -21.8771 -21.6965 -12.5019 -12.3178 -10.4895 -10.3019  -9.1801  -8.7916

     occupation numbers 
     1.0000   1.0000   1.0000   1.0000   1.0000   1.0000   1.0000   1.0000

          k = 0.1333 0.3849 0.0000 ( 14406 PWs)   bands (ev):

   -21.5577 -21.3772 -13.1088 -12.9250 -10.7553 -10.5675  -8.7201  -8.3555

     occupation numbers 
     1.0000   1.0000   1.0000   1.0000   1.0000   1.0000   1.0000   1.0000

          k = 0.1333 0.4234 0.0000 ( 14424 PWs)   bands (ev):

   -21.2381 -21.0577 -13.6798 -13.4962 -10.9750 -10.7872  -8.2495  -7.9140

     occupation numbers 
     1.0000   1.0000   1.0000   1.0000   1.0000   1.0000   1.0000   1.0000

          k = 0.1333 0.4619 0.0000 ( 14430 PWs)   bands (ev):

   -20.9378 -20.7576 -14.1850 -14.0016 -11.1471 -10.9593  -7.7934  -7.4936

     occupation numbers 
     1.0000   1.0000   1.0000   1.0000   1.0000   1.0000   1.0000   1.0000

          k = 0.1333 0.5004 0.0000 ( 14399 PWs)   bands (ev):

   -20.6843 -20.5042 -14.5898 -14.4066 -11.2707 -11.0829  -7.3913  -7.1336

     occupation numbers 
     1.0000   1.0000   1.0000   1.0000   1.0000   1.0000   1.0000   1.0000

          k = 0.1333 0.5389 0.0000 ( 14396 PWs)   bands (ev):

   -20.5111 -20.3311 -14.8557 -14.6726 -11.3451 -11.1573  -7.1019  -6.8854

     occupation numbers 
     1.0000   1.0000   1.0000   1.0000   1.0000   1.0000   1.0000   1.0000

          k = 0.1333 0.5774 0.0000 ( 14403 PWs)   bands (ev):

   -20.4489 -20.2690 -14.9490 -14.7660 -11.3699 -11.1821  -6.9936  -6.7966

     occupation numbers 
     1.0000   1.0000   1.0000   1.0000   1.0000   1.0000   1.0000   1.0000

          k = 0.1667 0.2887 0.0000 ( 14377 PWs)   bands (ev):

   -22.2007 -22.0199 -11.7868 -11.6023 -10.2429 -10.0564  -9.6387  -9.2291

     occupation numbers 
     1.0000   1.0000   1.0000   1.0000   1.0000   1.0000   1.0000   1.0000

          k = 0.1667 0.3272 0.0000 ( 14386 PWs)   bands (ev):

   -21.9103 -21.7296 -12.3181 -12.1337 -10.6223 -10.4353  -9.2281  -8.8367

     occupation numbers 
     1.0000   1.0000   1.0000   1.0000   1.0000   1.0000   1.0000   1.0000

          k = 0.1667 0.3657 0.0000 ( 14411 PWs)   bands (ev):

   -21.6020 -21.4215 -12.8638 -12.6796 -10.9539 -10.7669  -8.7861  -8.4165

     occupation numbers 
     1.0000   1.0000   1.0000   1.0000   1.0000   1.0000   1.0000   1.0000

          k = 0.1667 0.4041 0.0000 ( 14423 PWs)   bands (ev):

   -21.2871 -21.1067 -13.4010 -13.2170 -11.2300 -11.0431  -8.3257  -7.9826

     occupation numbers 
     1.0000   1.0000   1.0000   1.0000   1.0000   1.0000   1.0000   1.0000

          k = 0.1667 0.4426 0.0000 ( 14427 PWs)   bands (ev):

   -20.9817 -20.8014 -13.9009 -13.7170 -11.4495 -11.2626  -7.8669  -7.5559

     occupation numbers 
     1.0000   1.0000   1.0000   1.0000   1.0000   1.0000   1.0000   1.0000

          k = 0.1667 0.4811 0.0000 ( 14410 PWs)   bands (ev):

   -20.7087 -20.5286 -14.3291 -14.1454 -11.6129 -11.4261  -7.4409  -7.1683

     occupation numbers 
     1.0000   1.0000   1.0000   1.0000   1.0000   1.0000   1.0000   1.0000

          k = 0.1667 0.5196 0.0000 ( 14396 PWs)   bands (ev):

   -20.4979 -20.3179 -14.6478 -14.4642 -11.7213 -11.5345  -7.0955  -6.8646

     occupation numbers 
     1.0000   1.0000   1.0000   1.0000   1.0000   1.0000   1.0000   1.0000

          k = 0.1667 0.5581 0.0000 ( 14390 PWs)   bands (ev):

   -20.3814 -20.2015 -14.8196 -14.6361 -11.7753 -11.5885  -6.8947  -6.6957

     occupation numbers 
     1.0000   1.0000   1.0000   1.0000   1.0000   1.0000   1.0000   1.0000

          k = 0.2000 0.3464 0.0000 ( 14405 PWs)   bands (ev):

   -21.6170 -21.4364 -12.7645 -12.5801 -11.0387 -10.8521  -8.8082  -8.4370

     occupation numbers 
     1.0000   1.0000   1.0000   1.0000   1.0000   1.0000   1.0000   1.0000

          k = 0.2000 0.3849 0.0000 ( 14404 PWs)   bands (ev):

   -21.3122 -21.1317 -13.2193 -13.0350 -11.4028 -11.2165  -8.3645  -8.0176

     occupation numbers 
     1.0000   1.0000   1.0000   1.0000   1.0000   1.0000   1.0000   1.0000

          k = 0.2000 0.4234 0.0000 ( 14427 PWs)   bands (ev):

   -21.0093 -20.8290 -13.6659 -13.4817 -11.7004 -11.5143  -7.9129  -7.5952

     occupation numbers 
     1.0000   1.0000   1.0000   1.0000   1.0000   1.0000   1.0000   1.0000

          k = 0.2000 0.4619 0.0000 ( 14428 PWs)   bands (ev):

   -20.7274 -20.5472 -14.0756 -13.8914 -11.9280 -11.7422  -7.4782  -7.1952

     occupation numbers 
     1.0000   1.0000   1.0000   1.0000   1.0000   1.0000   1.0000   1.0000

          k = 0.2000 0.5004 0.0000 ( 14407 PWs)   bands (ev):

   -20.4918 -20.3118 -14.4118 -14.2276 -12.0876 -11.9018  -7.0983  -6.8546

     occupation numbers 
     1.0000   1.0000   1.0000   1.0000   1.0000   1.0000   1.0000   1.0000

          k = 0.2000 0.5389 0.0000 ( 14403 PWs)   bands (ev):

   -20.3323 -20.1524 -14.6354 -14.4513 -12.1819 -11.9962  -6.8276  -6.6207

     occupation numbers 
     1.0000   1.0000   1.0000   1.0000   1.0000   1.0000   1.0000   1.0000

          k = 0.2000 0.5774 0.0000 ( 14393 PWs)   bands (ev):

   -20.2755 -20.0956 -14.7142 -14.5301 -12.2131 -12.0275  -6.7273  -6.5370

     occupation numbers 
     1.0000   1.0000   1.0000   1.0000   1.0000   1.0000   1.0000   1.0000

          k = 0.2333 0.4041 0.0000 ( 14419 PWs)   bands (ev):

   -21.0187 -20.8384 -13.5683 -13.3838 -11.8042 -11.6185  -7.9286  -7.6086

     occupation numbers 
     1.0000   1.0000   1.0000   1.0000   1.0000   1.0000   1.0000   1.0000

          k = 0.2333 0.4426 0.0000 ( 14415 PWs)   bands (ev):

   -20.7375 -20.5573 -13.9023 -13.7177 -12.1343 -11.9492  -7.4981  -7.2098

     occupation numbers 
     1.0000   1.0000   1.0000   1.0000   1.0000   1.0000   1.0000   1.0000

          k = 0.2333 0.4811 0.0000 ( 14403 PWs)   bands (ev):

   -20.4896 -20.3095 -14.2001 -14.0154 -12.3812 -12.1965  -7.1031  -6.8509

     occupation numbers 
     1.0000   1.0000   1.0000   1.0000   1.0000   1.0000   1.0000   1.0000

          k = 0.2333 0.5196 0.0000 ( 14416 PWs)   bands (ev):

   -20.3009 -20.1210 -14.4292 -14.2443 -12.5432 -12.3587  -6.7875  -6.5720

     occupation numbers 
     1.0000   1.0000   1.0000   1.0000   1.0000   1.0000   1.0000   1.0000

          k = 0.2333 0.5581 0.0000 ( 14411 PWs)   bands (ev):

   -20.1978 -20.0179 -14.5550 -14.3700 -12.6229 -12.4386  -6.6067  -6.4175

     occupation numbers 
     1.0000   1.0000   1.0000   1.0000   1.0000   1.0000   1.0000   1.0000

          k = 0.2667 0.4619 0.0000 ( 14395 PWs)   bands (ev):

   -20.4891 -20.3090 -14.1074 -13.9223 -12.5019 -12.3178  -7.1053  -6.8500

     occupation numbers 
     1.0000   1.0000   1.0000   1.0000   1.0000   1.0000   1.0000   1.0000

          k = 0.2667 0.5004 0.0000 ( 14403 PWs)   bands (ev):

   -20.2857 -20.1057 -14.2731 -14.0875 -12.7786 -12.5952  -6.7690  -6.5482

     occupation numbers 
     1.0000   1.0000   1.0000   1.0000   1.0000   1.0000   1.0000   1.0000

          k = 0.2667 0.5389 0.0000 ( 14393 PWs)   bands (ev):

   -20.1506 -19.9707 -14.3844 -14.1984 -12.9488 -12.7658  -6.5349  -6.3433

     occupation numbers 
     1.0000   1.0000   1.0000   1.0000   1.0000   1.0000   1.0000   1.0000

          k = 0.2667 0.5774 0.0000 ( 14399 PWs)   bands (ev):

   -20.1031 -19.9232 -14.4240 -14.2379 -13.0059 -12.8232  -6.4497  -6.2703

     occupation numbers 
     1.0000   1.0000   1.0000   1.0000   1.0000   1.0000   1.0000   1.0000

          k = 0.3000 0.5196 0.0000 ( 14391 PWs)   bands (ev):

   -20.1348 -19.9549 -14.3003 -14.1137 -13.0853 -12.9032  -6.5112  -6.3182

     occupation numbers 
     1.0000   1.0000   1.0000   1.0000   1.0000   1.0000   1.0000   1.0000

          k = 0.3000 0.5581 0.0000 ( 14383 PWs)   bands (ev):

   -20.0541 -19.8743 -14.3009 -14.1135 -13.2585 -13.0774  -6.3684  -6.1927

     occupation numbers 
     1.0000   1.0000   1.0000   1.0000   1.0000   1.0000   1.0000   1.0000

          k = 0.3333 0.5774 0.0000 ( 14385 PWs)   bands (ev):

   -20.0208 -19.8410 -14.2508 -14.0624 -13.3856 -13.2058  -6.3100  -6.1398

     occupation numbers 
     1.0000   1.0000   1.0000   1.0000   1.0000   1.0000   1.0000   1.0000

     highest occupied level (ev):    -6.1398

!    total energy              =     -53.70145140 Ry
     estimated scf accuracy    <          1.7E-11 Ry

     The total energy is the sum of the following terms:
     one-electron contribution =   -1635.29501596 Ry
     hartree contribution      =     819.60072647 Ry
     xc contribution           =     -17.16711497 Ry
     ewald contribution        =     779.18460848 Ry
     Dispersion Correction     =      -0.02465542 Ry

     convergence has been achieved in  20 iterations

     Forces acting on atoms (cartesian axes, Ry/au):

     atom    1 type  1   force =     0.00000000    0.00000000   -0.02536465
     atom    2 type  1   force =     0.00000000    0.00000000   -0.00330709
     atom    3 type  2   force =     0.00000000    0.00000000    0.02995634
     atom    4 type  2   force =     0.00000000    0.00000000   -0.00128460
     The non-local contrib.  to forces
     atom    1 type  1   force =     0.00000000    0.00000000    0.00621786
     atom    2 type  1   force =    -0.00000000   -0.00000000   -0.00100556
     atom    3 type  2   force =     0.00000000    0.00000000    0.13525786
     atom    4 type  2   force =     0.00000000    0.00000000    0.00090946
     The ionic contribution  to forces
     atom    1 type  1   force =    -0.00000000    0.00000000  -14.88151764
     atom    2 type  1   force =     0.00000000   -0.00000000   15.46730593
     atom    3 type  2   force =     0.00000000   -0.00000000  -26.36275094
     atom    4 type  2   force =    -0.00000000    0.00000000   25.77696266
     The local contribution  to forces
     atom    1 type  1   force =    -0.00000000   -0.00000000   14.84979184
     atom    2 type  1   force =    -0.00000000    0.00000000  -15.46785547
     atom    3 type  2   force =     0.00000000   -0.00000000   26.25921845
     atom    4 type  2   force =    -0.00000000    0.00000000  -25.77803618
     The core correction contribution to forces
     atom    1 type  1   force =     0.00000000   -0.00000000   -0.00170409
     atom    2 type  1   force =    -0.00000000    0.00000000    0.00005204
     atom    3 type  2   force =    -0.00000000    0.00000000   -0.00285464
     atom    4 type  2   force =     0.00000000   -0.00000000    0.00000696
     The Hubbard contrib.    to forces
     atom    1 type  1   force =     0.00000000    0.00000000    0.00000000
     atom    2 type  1   force =     0.00000000    0.00000000    0.00000000
     atom    3 type  2   force =     0.00000000    0.00000000    0.00000000
     atom    4 type  2   force =     0.00000000    0.00000000    0.00000000
     The SCF correction term to forces
     atom    1 type  1   force =     0.00000000    0.00000000    0.00000019
     atom    2 type  1   force =     0.00000000   -0.00000000    0.00000023
     atom    3 type  2   force =    -0.00000000    0.00000000    0.00000027
     atom    4 type  2   force =     0.00000000    0.00000000    0.00000043

     Dispersion contribution to forces:
     atom    1 type  1   force =    -0.00000000    0.00000000    0.00184711
     atom    2 type  1   force =     0.00000000   -0.00000000   -0.00180435
     atom    3 type  2   force =     0.00000000   -0.00000000    0.00108526
     atom    4 type  2   force =    -0.00000000    0.00000000   -0.00112802

     Total force =     0.039412     Total SCF correction =     0.000001

     Total Dispersion Force =     0.003020


     Computing stress (Cartesian axis) and pressure

          total   stress  (Ry/bohr**3)                   (kbar)     P=      -16.56
  -0.00015203  -0.00000000   0.00000000          -22.36       -0.00        0.00
  -0.00000000  -0.00015203  -0.00000000           -0.00      -22.36       -0.00
   0.00000000   0.00000000  -0.00003370            0.00        0.00       -4.96

     kinetic stress (kbar)   3228.76     -0.00      0.00
                                0.00   3228.76      0.00
                                0.00      0.00   3513.48

     local   stress (kbar)-219513.27     -0.00      0.00
                               -0.00-219513.27     -0.00
                                0.00     -0.00 219994.46

     nonloc. stress (kbar)   -578.18      0.00      0.00
                                0.00   -578.18      0.00
                                0.00     -0.00   -556.82

     hartree stress (kbar) 108517.11     -0.00      0.00
                               -0.00 108517.11      0.00
                                0.00      0.00-107968.54

     exc-cor stress (kbar)   -313.89      0.00      0.00
                                0.00   -313.89      0.00
                                0.00      0.00   -313.89

     corecor stress (kbar)   -363.29     -0.00      0.00
                               -0.00   -363.29     -0.00
                                0.00     -0.00   -356.36

     ewald   stress (kbar) 109000.89      0.00     -0.00
                                0.00 109000.89      0.00
                               -0.00      0.00-114314.35

     hubbard stress (kbar)      0.00      0.00      0.00
                                0.00      0.00      0.00
                                0.00      0.00      0.00

     DFT-D   stress (kbar)     -0.49     -0.00     -0.00
                               -0.00     -0.49      0.00
                               -0.00      0.00     -2.93

     XDM     stress (kbar)      0.00      0.00      0.00
                                0.00      0.00      0.00
                                0.00      0.00      0.00

     dft-nl  stress (kbar)      0.00      0.00      0.00
                                0.00      0.00      0.00
                                0.00      0.00      0.00

     TS-vdW  stress (kbar)      0.00      0.00      0.00
                                0.00      0.00      0.00
                                0.00      0.00      0.00

     MDB     stress (kbar)      0.00      0.00      0.00
                                0.00      0.00      0.00
                                0.00      0.00      0.00

     3D-RISM stress (kbar)      0.00      0.00      0.00
                                0.00      0.00      0.00
                                0.00      0.00      0.00


     BFGS Geometry Optimization
     Energy error            =      3.0E-03 Ry
     Gradient error          =      3.0E-02 Ry/Bohr
     Cell gradient error     =      2.2E+01 kbar

     number of scf cycles    =   1
     number of bfgs steps    =   0

     enthalpy           new  =     -53.7014513996 Ry

     new trust radius        =       0.0299563432 bohr
     new conv_thr            =            1.0E-10 Ry

     new unit-cell volume =   1097.06992 a.u.^3 (   162.56899 Ang^3 )
     density =      0.50699 g/cm^3

CELL_PARAMETERS (alat=  4.74510230)
   0.996199221  -0.000000000   0.000000000
  -0.498099611   0.862733833   0.000000000
   0.000000000   0.000000000  11.947431302

ATOMIC_POSITIONS (crystal)
B                0.0000000000        0.0000000000        0.4341514679
B                0.3333333333        0.6666666667        0.5661372739
N                0.3333333333        0.6666666667        0.4335387933
N                0.6666666667        0.3333333333        0.5661724649



     Writing config-only to output data dir ./out/BN_rel.save/ :
     XML data file
     NEW-OLD atomic charge density approx. for the potential
     New effective cutoffs (rho, wfc):  338.18   84.64

     negative rho (up, down):  1.062E-05 0.000E+00

     total cpu time spent up to now is       21.4 secs

     per-process dynamical memory:   379.5 Mb

     Self-consistent Calculation
[tb_dev] Currently allocated     0.00E+00 Mbytes, locked:    0 /   0
[tb_pin] Currently allocated     0.00E+00 Mbytes, locked:    0 /   0

     iteration #  1     ecut=    84.00 Ry     beta= 0.40
     Davidson diagonalization with overlap

---- Real-time Memory Report at c_bands before calling an iterative solver
           874 MiB given to the printing process from OS
           370 MiB allocation reported by mallinfo(arena+hblkhd)
        813100 MiB available memory on the node where the printing process lives
     GPU memory used/free/total (MiB): 2053 / 94715 / 96768
------------------
     ethr =  1.00E-06,  avg # of iterations =  7.2

     negative rho (up, down):  6.250E-06 0.000E+00

     total cpu time spent up to now is       23.0 secs

     total energy              =     -53.70345833 Ry
     estimated scf accuracy    <       0.00037695 Ry
[tb_dev] Currently allocated     1.53E-05 Mbytes, locked:    0 /   1
[tb_pin] Currently allocated     0.00E+00 Mbytes, locked:    0 /   0

     iteration #  2     ecut=    84.00 Ry     beta= 0.40
     Davidson diagonalization with overlap

---- Real-time Memory Report at c_bands before calling an iterative solver
           874 MiB given to the printing process from OS
           370 MiB allocation reported by mallinfo(arena+hblkhd)
        813077 MiB available memory on the node where the printing process lives
     GPU memory used/free/total (MiB): 2053 / 94715 / 96768
------------------
     ethr =  2.36E-06,  avg # of iterations =  2.0

     negative rho (up, down):  3.839E-06 0.000E+00

     total cpu time spent up to now is       23.6 secs

     total energy              =     -53.70354123 Ry
     estimated scf accuracy    <       0.00002713 Ry
[tb_dev] Currently allocated     1.53E-05 Mbytes, locked:    0 /   1
[tb_pin] Currently allocated     0.00E+00 Mbytes, locked:    0 /   0

     iteration #  3     ecut=    84.00 Ry     beta= 0.40
     Davidson diagonalization with overlap

---- Real-time Memory Report at c_bands before calling an iterative solver
           876 MiB given to the printing process from OS
           370 MiB allocation reported by mallinfo(arena+hblkhd)
        813076 MiB available memory on the node where the printing process lives
     GPU memory used/free/total (MiB): 2053 / 94715 / 96768
------------------
     ethr =  1.70E-07,  avg # of iterations =  2.0

     negative rho (up, down):  1.222E-06 0.000E+00

     total cpu time spent up to now is       24.3 secs

     total energy              =     -53.70354199 Ry
     estimated scf accuracy    <       0.00000620 Ry
[tb_dev] Currently allocated     1.53E-05 Mbytes, locked:    0 /   1
[tb_pin] Currently allocated     0.00E+00 Mbytes, locked:    0 /   0

     iteration #  4     ecut=    84.00 Ry     beta= 0.40
     Davidson diagonalization with overlap

---- Real-time Memory Report at c_bands before calling an iterative solver
           876 MiB given to the printing process from OS
           370 MiB allocation reported by mallinfo(arena+hblkhd)
        813076 MiB available memory on the node where the printing process lives
     GPU memory used/free/total (MiB): 2053 / 94715 / 96768
------------------
     ethr =  3.87E-08,  avg # of iterations =  2.0

     negative rho (up, down):  4.783E-07 0.000E+00

     total cpu time spent up to now is       24.9 secs

     total energy              =     -53.70354292 Ry
     estimated scf accuracy    <       0.00000046 Ry
[tb_dev] Currently allocated     1.53E-05 Mbytes, locked:    0 /   1
[tb_pin] Currently allocated     0.00E+00 Mbytes, locked:    0 /   0

     iteration #  5     ecut=    84.00 Ry     beta= 0.40
     Davidson diagonalization with overlap

---- Real-time Memory Report at c_bands before calling an iterative solver
           876 MiB given to the printing process from OS
           370 MiB allocation reported by mallinfo(arena+hblkhd)
        813029 MiB available memory on the node where the printing process lives
     GPU memory used/free/total (MiB): 2053 / 94715 / 96768
------------------
     ethr =  2.88E-09,  avg # of iterations =  3.4

     negative rho (up, down):  1.788E-07 0.000E+00

     total cpu time spent up to now is       25.9 secs

     total energy              =     -53.70354309 Ry
     estimated scf accuracy    <       0.00000006 Ry
[tb_dev] Currently allocated     1.53E-05 Mbytes, locked:    0 /   1
[tb_pin] Currently allocated     0.00E+00 Mbytes, locked:    0 /   0

     iteration #  6     ecut=    84.00 Ry     beta= 0.40
     Davidson diagonalization with overlap

---- Real-time Memory Report at c_bands before calling an iterative solver
           876 MiB given to the printing process from OS
           370 MiB allocation reported by mallinfo(arena+hblkhd)
        813028 MiB available memory on the node where the printing process lives
     GPU memory used/free/total (MiB): 2053 / 94715 / 96768
------------------
     ethr =  3.47E-10,  avg # of iterations =  2.9

     negative rho (up, down):  1.392E-08 0.000E+00

     total cpu time spent up to now is       26.7 secs

     total energy              =     -53.70354310 Ry
     estimated scf accuracy    <          8.8E-09 Ry
[tb_dev] Currently allocated     1.53E-05 Mbytes, locked:    0 /   1
[tb_pin] Currently allocated     0.00E+00 Mbytes, locked:    0 /   0

     iteration #  7     ecut=    84.00 Ry     beta= 0.40
     Davidson diagonalization with overlap

---- Real-time Memory Report at c_bands before calling an iterative solver
           876 MiB given to the printing process from OS
           370 MiB allocation reported by mallinfo(arena+hblkhd)
        813027 MiB available memory on the node where the printing process lives
     GPU memory used/free/total (MiB): 2053 / 94715 / 96768
------------------
     ethr =  5.50E-11,  avg # of iterations =  2.9

     total cpu time spent up to now is       27.5 secs

     total energy              =     -53.70354310 Ry
     estimated scf accuracy    <          7.4E-10 Ry
[tb_dev] Currently allocated     1.53E-05 Mbytes, locked:    0 /   1
[tb_pin] Currently allocated     0.00E+00 Mbytes, locked:    0 /   0

     iteration #  8     ecut=    84.00 Ry     beta= 0.40
     Davidson diagonalization with overlap

---- Real-time Memory Report at c_bands before calling an iterative solver
           876 MiB given to the printing process from OS
           370 MiB allocation reported by mallinfo(arena+hblkhd)
        813018 MiB available memory on the node where the printing process lives
     GPU memory used/free/total (MiB): 2053 / 94715 / 96768
------------------
     ethr =  4.65E-12,  avg # of iterations =  4.2

     total cpu time spent up to now is       28.6 secs

     total energy              =     -53.70354310 Ry
     estimated scf accuracy    <          3.6E-10 Ry
[tb_dev] Currently allocated     1.53E-05 Mbytes, locked:    0 /   1
[tb_pin] Currently allocated     0.00E+00 Mbytes, locked:    0 /   0

     iteration #  9     ecut=    84.00 Ry     beta= 0.40
     Davidson diagonalization with overlap

---- Real-time Memory Report at c_bands before calling an iterative solver
           876 MiB given to the printing process from OS
           370 MiB allocation reported by mallinfo(arena+hblkhd)
        813016 MiB available memory on the node where the printing process lives
     GPU memory used/free/total (MiB): 2053 / 94715 / 96768
------------------
     ethr =  2.25E-12,  avg # of iterations =  2.0

     total cpu time spent up to now is       29.2 secs

     End of self-consistent calculation

          k = 0.0000 0.0000 0.0000 ( 14157 PWs)   bands (ev):

   -23.6461 -23.5826 -11.6938 -11.2591  -7.5325  -7.5325  -7.4783  -7.4783

     occupation numbers 
     1.0000   1.0000   1.0000   1.0000   1.0000   1.0000   1.0000   1.0000

          k = 0.0000 0.0386 0.0000 ( 14192 PWs)   bands (ev):

   -23.6245 -23.5611 -11.6644 -11.2304  -7.6240  -7.5763  -7.5699  -7.5222

     occupation numbers 
     1.0000   1.0000   1.0000   1.0000   1.0000   1.0000   1.0000   1.0000

          k = 0.0000 0.0773 0.0000 ( 14202 PWs)   bands (ev):

   -23.5601 -23.4968 -11.5762 -11.1447  -7.8899  -7.8358  -7.7030  -7.6488

     occupation numbers 
     1.0000   1.0000   1.0000   1.0000   1.0000   1.0000   1.0000   1.0000

          k = 0.0000 0.1159 0.0000 ( 14220 PWs)   bands (ev):

   -23.4532 -23.3903 -11.4299 -11.0024  -8.3072  -8.2530  -7.8994  -7.8452

     occupation numbers 
     1.0000   1.0000   1.0000   1.0000   1.0000   1.0000   1.0000   1.0000

          k = 0.0000 0.1545 0.0000 ( 14282 PWs)   bands (ev):

   -23.3049 -23.2423 -11.2264 -10.8049  -8.8455  -8.7911  -8.1478  -8.0935

     occupation numbers 
     1.0000   1.0000   1.0000   1.0000   1.0000   1.0000   1.0000   1.0000

          k = 0.0000 0.1932 0.0000 ( 14306 PWs)   bands (ev):

   -23.1165 -23.0544 -10.9673 -10.5541  -9.4725  -9.4179  -8.4289  -8.3746

     occupation numbers 
     1.0000   1.0000   1.0000   1.0000   1.0000   1.0000   1.0000   1.0000

          k = 0.0000 0.2318 0.0000 ( 14328 PWs)   bands (ev):

   -22.8900 -22.8286 -10.6555 -10.2626 -10.1548 -10.0975  -8.7251  -8.6707

     occupation numbers 
     1.0000   1.0000   1.0000   1.0000   1.0000   1.0000   1.0000   1.0000

[...]

          k = 0.1010 0.4860 0.0000 ( 14129 PWs)   bands (ev):

   -21.0174 -20.6596 -14.5933 -14.2646 -10.9114 -10.6010  -8.1544  -6.9894

     occupation numbers 
     1.0000   1.0000   1.0000   1.0000   1.0000   1.0000   1.0000   1.0000

          k = 0.1010 0.5248 0.0000 ( 14123 PWs)   bands (ev):

   -20.7735 -20.4392 -14.9590 -14.6307 -11.0082 -10.6969  -7.7069  -6.7820

     occupation numbers 
     1.0000   1.0000   1.0000   1.0000   1.0000   1.0000   1.0000   1.0000

          k = 0.1010 0.5637 0.0000 ( 14112 PWs)   bands (ev):

   -20.6360 -20.3175 -15.1555 -14.8287 -11.0569 -10.7452  -7.4161  -6.7063

     occupation numbers 
     1.0000   1.0000   1.0000   1.0000   1.0000   1.0000   1.0000   1.0000

          k = 0.1347 0.2333 0.0000 ( 14047 PWs)   bands (ev):

   -22.9655 -22.5057 -11.1212 -10.7204 -10.4141  -9.4733  -9.2693  -9.1647

     occupation numbers 
     1.0000   1.0000   1.0000   1.0000   1.0000   1.0000   1.0000   1.0000

          k = 0.1347 0.2721 0.0000 ( 14048 PWs)   bands (ev):

   -22.7002 -22.2504 -11.3188 -11.0720 -10.6470  -9.8524  -9.5560  -8.9367

     occupation numbers 
     1.0000   1.0000   1.0000   1.0000   1.0000   1.0000   1.0000   1.0000

          k = 0.1347 0.3110 0.0000 ( 14055 PWs)   bands (ev):

   -22.4036 -21.9656 -11.9305 -11.6466 -10.2750 -10.2085  -9.9021  -8.5750

     occupation numbers 
     1.0000   1.0000   1.0000   1.0000   1.0000   1.0000   1.0000   1.0000

          k = 0.1347 0.3499 0.0000 ( 14078 PWs)   bands (ev):

   -22.0819 -21.6578 -12.5643 -12.2669 -10.5269 -10.2330  -9.8011  -8.1843

     occupation numbers 
     1.0000   1.0000   1.0000   1.0000   1.0000   1.0000   1.0000   1.0000

          k = 0.1347 0.3888 0.0000 ( 14091 PWs)   bands (ev):

   -21.7441 -21.3364 -13.1906 -12.8826 -10.8005 -10.4974  -9.3108  -7.7803

     occupation numbers 
     1.0000   1.0000   1.0000   1.0000   1.0000   1.0000   1.0000   1.0000

          k = 0.1347 0.4276 0.0000 ( 14114 PWs)   bands (ev):

   -21.4038 -21.0153 -13.7810 -13.4646 -11.0265 -10.7191  -8.7941  -7.3854

     occupation numbers 
     1.0000   1.0000   1.0000   1.0000   1.0000   1.0000   1.0000   1.0000

          k = 0.1347 0.4665 0.0000 ( 14111 PWs)   bands (ev):

   -21.0811 -20.7147 -14.3042 -13.9822 -11.2035 -10.8931  -8.2763  -7.0330

     occupation numbers 
     1.0000   1.0000   1.0000   1.0000   1.0000   1.0000   1.0000   1.0000

          k = 0.1347 0.5054 0.0000 ( 14120 PWs)   bands (ev):

   -20.8052 -20.4623 -14.7238 -14.3993 -11.3305 -11.0182  -7.7946  -6.7683

     occupation numbers 
     1.0000   1.0000   1.0000   1.0000   1.0000   1.0000   1.0000   1.0000

          k = 0.1347 0.5443 0.0000 ( 14112 PWs)   bands (ev):

   -20.6140 -20.2911 -14.9995 -14.6749 -11.4069 -11.0935  -7.4154  -6.6314

     occupation numbers 
     1.0000   1.0000   1.0000   1.0000   1.0000   1.0000   1.0000   1.0000

          k = 0.1347 0.5832 0.0000 ( 14122 PWs)   bands (ev):

   -20.5447 -20.2301 -15.0962 -14.7721 -11.4324 -11.1187  -7.2579  -6.6029

     occupation numbers 
     1.0000   1.0000   1.0000   1.0000   1.0000   1.0000   1.0000   1.0000

          k = 0.1683 0.2916 0.0000 ( 14061 PWs)   bands (ev):

   -22.4225 -21.9835 -11.8259 -11.5525 -10.3019 -10.2694  -9.9659  -8.5974

     occupation numbers 
     1.0000   1.0000   1.0000   1.0000   1.0000   1.0000   1.0000   1.0000

          k = 0.1683 0.3305 0.0000 ( 14074 PWs)   bands (ev):

   -22.1170 -21.6910 -12.3696 -12.0889 -10.6575 -10.3703  -9.8527  -8.2253

     occupation numbers 
     1.0000   1.0000   1.0000   1.0000   1.0000   1.0000   1.0000   1.0000

          k = 0.1683 0.3693 0.0000 ( 14098 PWs)   bands (ev):

   -21.7915 -21.3806 -12.9325 -12.6427 -10.9977 -10.7018  -9.3832  -7.8331

     occupation numbers 
     1.0000   1.0000   1.0000   1.0000   1.0000   1.0000   1.0000   1.0000

          k = 0.1683 0.4082 0.0000 ( 14097 PWs)   bands (ev):

   -21.4570 -21.0637 -13.4896 -13.1893 -11.2818 -10.9795  -8.8814  -7.4387

     occupation numbers 
     1.0000   1.0000   1.0000   1.0000   1.0000   1.0000   1.0000   1.0000

          k = 0.1683 0.4471 0.0000 ( 14096 PWs)   bands (ev):

   -21.1300 -20.7571 -14.0092 -13.6996 -11.5076 -11.2002  -8.3678  -7.0690

     occupation numbers 
     1.0000   1.0000   1.0000   1.0000   1.0000   1.0000   1.0000   1.0000

          k = 0.1683 0.4860 0.0000 ( 14111 PWs)   bands (ev):

   -20.8345 -20.4841 -14.4551 -14.1390 -11.6758 -11.3645  -7.8704  -6.7626

     occupation numbers 
     1.0000   1.0000   1.0000   1.0000   1.0000   1.0000   1.0000   1.0000

          k = 0.1683 0.5248 0.0000 ( 14127 PWs)   bands (ev):

   -20.6034 -20.2745 -14.7873 -14.4678 -11.7873 -11.4735  -7.4372  -6.5646

     occupation numbers 
     1.0000   1.0000   1.0000   1.0000   1.0000   1.0000   1.0000   1.0000

          k = 0.1683 0.5637 0.0000 ( 14121 PWs)   bands (ev):

   -20.4740 -20.1594 -14.9665 -14.6459 -11.8428 -11.5278  -7.1567  -6.4921

     occupation numbers 
     1.0000   1.0000   1.0000   1.0000   1.0000   1.0000   1.0000   1.0000

          k = 0.2020 0.3499 0.0000 ( 14081 PWs)   bands (ev):

   -21.8074 -21.3954 -12.8262 -12.5480 -11.0804 -10.7901  -9.4075  -7.8509

     occupation numbers 
     1.0000   1.0000   1.0000   1.0000   1.0000   1.0000   1.0000   1.0000

          k = 0.2020 0.3888 0.0000 ( 14096 PWs)   bands (ev):

   -21.4841 -21.0885 -13.2963 -13.0149 -11.4514 -11.1579  -8.9257  -7.4663

     occupation numbers 
     1.0000   1.0000   1.0000   1.0000   1.0000   1.0000   1.0000   1.0000

          k = 0.2020 0.4276 0.0000 ( 14080 PWs)   bands (ev):

   -21.1607 -20.7839 -13.7618 -13.4719 -11.7561 -11.4570  -8.4243  -7.0928

     occupation numbers 
     1.0000   1.0000   1.0000   1.0000   1.0000   1.0000   1.0000   1.0000

          k = 0.2020 0.4665 0.0000 ( 14102 PWs)   bands (ev):

   -20.8569 -20.5009 -14.1913 -13.8911 -11.9902 -11.6848  -7.9252  -6.7619

     occupation numbers 
     1.0000   1.0000   1.0000   1.0000   1.0000   1.0000   1.0000   1.0000

          k = 0.2020 0.5054 0.0000 ( 14106 PWs)   bands (ev):

   -20.6000 -20.2654 -14.5449 -14.2361 -12.1546 -11.8441  -7.4640  -6.5149

     occupation numbers 
     1.0000   1.0000   1.0000   1.0000   1.0000   1.0000   1.0000   1.0000

          k = 0.2020 0.5443 0.0000 ( 14110 PWs)   bands (ev):

   -20.4239 -20.1069 -14.7804 -14.4666 -12.2518 -11.9382  -7.1033  -6.3876

     occupation numbers 
     1.0000   1.0000   1.0000   1.0000   1.0000   1.0000   1.0000   1.0000

          k = 0.2020 0.5832 0.0000 ( 14119 PWs)   bands (ev):

   -20.3607 -20.0507 -14.8635 -14.5481 -12.2840 -11.9693  -6.9540  -6.3613

     occupation numbers 
     1.0000   1.0000   1.0000   1.0000   1.0000   1.0000   1.0000   1.0000

          k = 0.2357 0.4082 0.0000 ( 14089 PWs)   bands (ev):

   -21.1712 -20.7930 -13.6571 -13.3805 -11.8566 -11.5644  -8.4434  -7.1011

     occupation numbers 
     1.0000   1.0000   1.0000   1.0000   1.0000   1.0000   1.0000   1.0000

          k = 0.2357 0.4471 0.0000 ( 14081 PWs)   bands (ev):

   -20.8689 -20.5101 -14.0077 -13.7280 -12.1911 -11.8965  -7.9539  -6.7626

     occupation numbers 
     1.0000   1.0000   1.0000   1.0000   1.0000   1.0000   1.0000   1.0000

          k = 0.2357 0.4860 0.0000 ( 14099 PWs)   bands (ev):

   -20.5997 -20.2613 -14.3245 -14.0352 -12.4430 -12.1428  -7.4843  -6.4853

     occupation numbers 
     1.0000   1.0000   1.0000   1.0000   1.0000   1.0000   1.0000   1.0000

          k = 0.2357 0.5248 0.0000 ( 14104 PWs)   bands (ev):

   -20.3926 -20.0726 -14.5702 -14.2704 -12.6094 -12.3034  -7.0795  -6.3080

     occupation numbers 
     1.0000   1.0000   1.0000   1.0000   1.0000   1.0000   1.0000   1.0000

          k = 0.2357 0.5637 0.0000 ( 14097 PWs)   bands (ev):

   -20.2783 -19.9699 -14.7058 -14.3996 -12.6916 -12.3821  -6.8194  -6.2440

     occupation numbers 
     1.0000   1.0000   1.0000   1.0000   1.0000   1.0000   1.0000   1.0000

          k = 0.2693 0.4665 0.0000 ( 14075 PWs)   bands (ev):

   -20.6000 -20.2601 -14.2262 -13.9515 -12.5578 -12.2667  -7.4917  -6.4756

     occupation numbers 
     1.0000   1.0000   1.0000   1.0000   1.0000   1.0000   1.0000   1.0000

          k = 0.2693 0.5054 0.0000 ( 14103 PWs)   bands (ev):

   -20.3776 -20.0557 -14.4088 -14.1301 -12.8340 -12.5426  -7.0711  -6.2655

     occupation numbers 
     1.0000   1.0000   1.0000   1.0000   1.0000   1.0000   1.0000   1.0000

          k = 0.2693 0.5443 0.0000 ( 14121 PWs)   bands (ev):

   -20.2286 -19.9202 -14.5351 -14.2476 -13.0048 -12.7102  -6.7472  -6.1595

     occupation numbers 
     1.0000   1.0000   1.0000   1.0000   1.0000   1.0000   1.0000   1.0000

          k = 0.2693 0.5832 0.0000 ( 14105 PWs)   bands (ev):

   -20.1758 -19.8726 -14.5808 -14.2889 -13.0624 -12.7660  -6.6141  -6.1387

     occupation numbers 
     1.0000   1.0000   1.0000   1.0000   1.0000   1.0000   1.0000   1.0000

          k = 0.3030 0.5248 0.0000 ( 14125 PWs)   bands (ev):

   -20.2121 -19.9035 -14.4499 -14.1792 -13.1283 -12.8480  -6.7249  -6.1286

     occupation numbers 
     1.0000   1.0000   1.0000   1.0000   1.0000   1.0000   1.0000   1.0000

          k = 0.3030 0.5637 0.0000 ( 14135 PWs)   bands (ev):

   -20.1231 -19.8221 -14.4624 -14.1953 -13.2894 -13.0180  -6.5080  -6.0804

     occupation numbers 
     1.0000   1.0000   1.0000   1.0000   1.0000   1.0000   1.0000   1.0000

          k = 0.3367 0.5832 0.0000 ( 14103 PWs)   bands (ev):

   -20.0867 -19.7882 -14.4182 -14.1683 -13.3948 -13.1433  -6.4163  -6.0602

     occupation numbers 
     1.0000   1.0000   1.0000   1.0000   1.0000   1.0000   1.0000   1.0000

     highest occupied level (ev):    -6.0602

!    total energy              =     -53.71678667 Ry
     estimated scf accuracy    <          9.4E-14 Ry

     The total energy is the sum of the following terms:
     one-electron contribution =   -1840.35427216 Ry
     hartree contribution      =     922.19082062 Ry
     xc contribution           =     -17.28192269 Ry
     ewald contribution        =     881.76550786 Ry
     Dispersion Correction     =      -0.03692031 Ry

     convergence has been achieved in  23 iterations

     Forces acting on atoms (cartesian axes, Ry/au):

     atom    1 type  1   force =    -0.00000000   -0.00000000   -0.00001528
     atom    2 type  1   force =     0.00000000    0.00000000   -0.00001632
     atom    3 type  2   force =     0.00000000    0.00000000    0.00002033
     atom    4 type  2   force =     0.00000000    0.00000000    0.00001127
     The non-local contrib.  to forces
     atom    1 type  1   force =    -0.00000000   -0.00000000   -0.00078028
     atom    2 type  1   force =     0.00000000    0.00000000   -0.00216340
     atom    3 type  2   force =     0.00000000    0.00000000    0.00085167
     atom    4 type  2   force =    -0.00000000   -0.00000000   -0.00560426
     The ionic contribution  to forces
     atom    1 type  1   force =    -0.00000000    0.00000000  -15.71977225
     atom    2 type  1   force =     0.00000000   -0.00000000   15.74119697
     atom    3 type  2   force =     0.00000000   -0.00000000  -26.35042624
     atom    4 type  2   force =    -0.00000000    0.00000000   26.32900152
     The local contribution  to forces
     atom    1 type  1   force =     0.00000000   -0.00000000   15.71555758
     atom    2 type  1   force =    -0.00000000    0.00000000  -15.73550576
     atom    3 type  2   force =     0.00000000   -0.00000000   26.34662629
     atom    4 type  2   force =    -0.00000000    0.00000000  -26.31906090
     The core correction contribution to forces
     atom    1 type  1   force =     0.00000000   -0.00000000   -0.00015412
     atom    2 type  1   force =    -0.00000000    0.00000000    0.00012550
     atom    3 type  2   force =    -0.00000000    0.00000000    0.00031307
     atom    4 type  2   force =     0.00000000   -0.00000000   -0.00020442
     The Hubbard contrib.    to forces
     atom    1 type  1   force =     0.00000000    0.00000000    0.00000000
     atom    2 type  1   force =     0.00000000    0.00000000    0.00000000
     atom    3 type  2   force =     0.00000000    0.00000000    0.00000000
     atom    4 type  2   force =     0.00000000    0.00000000    0.00000000
     The SCF correction term to forces
     atom    1 type  1   force =    -0.00000000   -0.00000000   -0.00000017
     atom    2 type  1   force =    -0.00000000    0.00000000   -0.00000016
     atom    3 type  2   force =     0.00000000    0.00000000   -0.00000032
     atom    4 type  2   force =     0.00000000   -0.00000000   -0.00000028

     Dispersion contribution to forces:
     atom    1 type  1   force =    -0.00000000    0.00000000    0.00513397
     atom    2 type  1   force =     0.00000000   -0.00000000   -0.00366946
     atom    3 type  2   force =     0.00000000   -0.00000000    0.00265588
     atom    4 type  2   force =    -0.00000000    0.00000000   -0.00412039

     Total force =     0.000032     Total SCF correction =     0.000000

     Total Dispersion Force =     0.007991


     Computing stress (Cartesian axis) and pressure

          total   stress  (Ry/bohr**3)                   (kbar)     P=       -0.01
   0.00000000  -0.00000000   0.00000000            0.00       -0.00        0.00
  -0.00000000   0.00000000   0.00000000           -0.00        0.00        0.00
   0.00000000   0.00000000  -0.00000031            0.00        0.00       -0.04

     kinetic stress (kbar)   3329.11     -0.00      0.00
                               -0.00   3329.11      0.00
                                0.00      0.00   3613.98

     local   stress (kbar)-251868.77     -0.00      0.00
                               -0.00-251868.77     -0.00
                                0.00     -0.00 252424.80

     nonloc. stress (kbar)   -599.56      0.00      0.00
                                0.00   -599.56      0.00
                               -0.00     -0.00   -575.00

     hartree stress (kbar) 124648.62      0.00      0.00
                                0.00 124648.62     -0.00
                                0.00     -0.00-124100.20

     exc-cor stress (kbar)   -324.58      0.00      0.00
                                0.00   -324.58      0.00
                                0.00      0.00   -324.58

     corecor stress (kbar)   -371.53     -0.00      0.00
                               -0.00   -371.53     -0.00
                                0.00     -0.00   -364.15

     ewald   stress (kbar) 125189.00      0.00     -0.00
                                0.00 125189.00      0.00
                               -0.00      0.00-130669.12

     hubbard stress (kbar)      0.00      0.00      0.00
                                0.00      0.00      0.00
                                0.00      0.00      0.00

     DFT-D   stress (kbar)     -2.28     -0.00      0.00
                               -0.00     -2.28     -0.00
                                0.00     -0.00     -5.79

     XDM     stress (kbar)      0.00      0.00      0.00
                                0.00      0.00      0.00
                                0.00      0.00      0.00

     dft-nl  stress (kbar)      0.00      0.00      0.00
                                0.00      0.00      0.00
                                0.00      0.00      0.00

     TS-vdW  stress (kbar)      0.00      0.00      0.00
                                0.00      0.00      0.00
                                0.00      0.00      0.00

     MDB     stress (kbar)      0.00      0.00      0.00
                                0.00      0.00      0.00
                                0.00      0.00      0.00

     3D-RISM stress (kbar)      0.00      0.00      0.00
                                0.00      0.00      0.00
                                0.00      0.00      0.00


     Writing all to output data dir ./out/BN_rel.save/ :
     XML data file, charge density, pseudopotentials, collected wavefunctions
 
     init_run     :      0.82s CPU      2.55s WALL (       2 calls)
     electrons    :    221.98s CPU    256.03s WALL (      24 calls)
     update_pot   :      0.44s CPU      0.10s WALL (      22 calls)
     forces       :      4.04s CPU      3.34s WALL (      24 calls)
     force_london :      1.20s CPU      0.17s WALL (      24 calls)
     stress       :     10.47s CPU     12.74s WALL (      24 calls)
     stres_london :      0.48s CPU      0.28s WALL (      24 calls)

     Called by init_run:
     wfcinit      :      0.54s CPU      1.38s WALL (       2 calls)
     wfcinit:atom :      0.05s CPU      0.06s WALL (     182 calls)
     wfcinit:wfcr :      0.42s CPU      1.22s WALL (     182 calls)
     potinit      :      0.03s CPU      0.03s WALL (       2 calls)
     hinit0       :      0.17s CPU      1.03s WALL (       2 calls)

     Called by electrons:
     c_bands      :    203.08s CPU    235.39s WALL (     297 calls)
     sum_band     :     16.33s CPU     18.22s WALL (     297 calls)
     v_of_rho     :      0.26s CPU      0.39s WALL (     318 calls)
     v_h          :      0.17s CPU      0.29s WALL (     318 calls)
     v_xc         :      0.10s CPU      0.11s WALL (     366 calls)
     mix_rho      :      0.81s CPU      1.18s WALL (     297 calls)
     energy_londo :      1.08s CPU      0.23s WALL (      24 calls)

     Called by c_bands:
     init_us_2    :     11.41s CPU     12.86s WALL (   58604 calls)
     cegterg      :    183.10s CPU    207.75s WALL (   27027 calls)

     Called by sum_band:
     sum_band:wei :      0.00s CPU      0.00s WALL (     297 calls)
     sum_band:loo :     15.73s CPU     17.23s WALL (     297 calls)
     sum_band:buf :      0.85s CPU      0.93s WALL (   27027 calls)
     sum_band:ini :      5.35s CPU      5.86s WALL (   27027 calls)

     Called by *egterg:
     cdiaghg      :     24.40s CPU     28.98s WALL (  107864 calls)
                                       28.21s GPU  (  107864 calls)
     cegterg:over :     28.13s CPU     31.91s WALL (   83112 calls)
     cegterg:upda :      7.14s CPU      8.13s WALL (   83112 calls)
     cegterg:last :      2.54s CPU      2.88s WALL (   71013 calls)
     h_psi        :     92.28s CPU    106.36s WALL (  110321 calls)
                                      105.55s GPU  (  110321 calls)
     g_psi        :      0.34s CPU      1.31s WALL (   83112 calls)
                                        0.71s GPU  (   83112 calls)

     Called by h_psi:
     h_psi:calbec :     19.48s CPU     23.30s WALL (  110321 calls)
                                       22.47s GPU  (  110321 calls)
     vloc_psi     :     56.75s CPU     65.98s WALL (  110321 calls)
                                       65.16s GPU  (  110321 calls)
     add_vuspsi   :      9.43s CPU     11.87s WALL (  110321 calls)
                                       11.08s GPU  (  110321 calls)

     General routines
     calbec       :     25.24s CPU     29.69s WALL (  147449 calls)
     fft          :      0.39s CPU      1.58s WALL (    1147 calls)
                                        1.57s GPU  (    1147 calls)
     ffts         :      0.04s CPU      0.31s WALL (     297 calls)
                                        0.31s GPU  (     297 calls)
     fftw         :     38.60s CPU     49.64s WALL (  247669 calls)
                                       47.85s GPU  (  247669 calls)
 
     Parallel routines
 
     PWSCF        :   3m59.40s CPU   4m36.34s WALL

 
   This run was terminated on:  13:24:14  11Aug2025            

=------------------------------------------------------------------------------=
   JOB DONE.
=------------------------------------------------------------------------------=
Warning: ieee_underflow is signaling
Warning: ieee_inexact is signaling
FORTRAN STOP
Warning: ieee_underflow is signaling
Warning: ieee_inexact is signaling
FORTRAN STOP
Warning: ieee_underflow is signaling
Warning: ieee_inexact is signaling
FORTRAN STOP
Warning: ieee_underflow is signaling
Warning: ieee_inexact is signaling
FORTRAN STOP
