
     Program PWSCF v.7.4 starts on  6Aug2025 at 16:34:41 

     This program is part of the open-source Quantum ESPRESSO suite
     for quantum simulation of materials; please cite
         "P. Giannozzi et al., J. Phys.:Condens. Matter 21 395502 (2009);
         "P. Giannozzi et al., J. Phys.:Condens. Matter 29 465901 (2017);
         "P. Giannozzi et al., J. Chem. Phys. 152 154105 (2020);
          URL http://www.quantum-espresso.org", 
     in publications or presentations arising from this work. More details at
     http://www.quantum-espresso.org/quote

     Parallel version (MPI & OpenMP), running on      80 processor cores
     Number of MPI processes:                 4
     Threads/MPI process:                    20

     MPI processes distributed on     1 nodes
     830866 MiB available memory on the printing compute node when the environment starts
 
     Waiting for input...
     Reading input from standard input

     Current dimensions of program PWSCF are:
     Max number of different atomic species (ntypx) = 10
     Max number of k-points (npk) =  40000
     Max angular momentum in pseudopotentials (lmaxx) =  4
     Message from routine setup:
     using ibrav=0 with symmetry is DISCOURAGED, use correct ibrav instead
 
     R & G space division:  proc/nbgrp/npool/nimage =       4
     Subspace diagonalization in iterative solution of the eigenvalue problem:
     a serial algorithm will be used

 
     Parallelization info
     --------------------
     sticks:   dense  smooth     PW     G-vecs:    dense   smooth      PW
     Min         192      94     30                50728    17892    3100
     Max         193      95     31                50759    17939    3135
     Sum         769     379    121               202991    71685   12455
 
     Using Slab Decomposition
 


     bravais-lattice index     =            0
     lattice parameter (alat)  =       4.8262  a.u.
     unit-cell volume          =    1143.5878 (a.u.)^3
     number of atoms/cell      =            4
     number of atomic types    =            2
     number of electrons       =        16.00
     number of Kohn-Sham states=            8
     kinetic-energy cutoff     =      60.0000  Ry
     charge density cutoff     =     480.0000  Ry
     scf convergence threshold =      8.0E-10
     mixing beta               =       0.4000
     number of iterations used =            8  plain     mixing
     energy convergence thresh.=      4.0E-05
     force convergence thresh. =      1.0E-04
     press convergence thresh. =      5.0E-01
     Exchange-correlation= PBESOL
                           (   1   4  10   8   0   0   0)
     nstep                     =           50


     GPU acceleration is ACTIVE.  1 visible GPUs per MPI rank
     GPU-aware MPI enabled

     Message from routine print_cuda_info:
     High GPU oversubscription detected. Are you sure this is what you want?

     GPU used by master process:

        Device Number: 0
        Device name: NVIDIA GH200 120GB
        Compute capability : 90
        Ratio of single to double precision performance  : 2
        Memory Clock Rate (KHz): 2619000
        Memory Bus Width (bits): 6144
        Peak Memory Bandwidth (GB/s): ******

     celldm(1)=   4.826245  celldm(2)=   0.000000  celldm(3)=   0.000000
     celldm(4)=   0.000000  celldm(5)=   0.000000  celldm(6)=   0.000000

     crystal axes: (cart. coord. in units of alat)
               a(1) = (   1.000000   0.000000   0.000000 )  
               a(2) = (  -0.500000   0.866025   0.000000 )  
               a(3) = (   0.000000   0.000000  11.746561 )  

     reciprocal axes: (cart. coord. in units 2 pi/alat)
               b(1) = (  1.000000  0.577350 -0.000000 )  
               b(2) = (  0.000000  1.154701  0.000000 )  
               b(3) = (  0.000000 -0.000000  0.085131 )  


     PseudoPot. # 1 for B  read from file:
     ./pseudo/b_pbesol_v1.4.uspp.F.UPF
     MD5 check sum: 369b69bef2c3aeed4453bd8b804fd6a8
     Pseudo is Ultrasoft + core correction, Zval =  3.0
     Generated by new atomic code, or converted to UPF format
     Using radial grid of  781 points,  4 beta functions with: 
                l(1) =   0
                l(2) =   0
                l(3) =   1
                l(4) =   1
     Q(r) pseudized with  8 coefficients,  rinner =    1.100   1.100   1.100


     PseudoPot. # 2 for N  read from file:
     ./pseudo/N.pbesol-theos.UPF
     MD5 check sum: 1b64827339d390a5a22afef3ff345c9d
     Pseudo is Ultrasoft + core correction, Zval =  5.0
     Generated using "atomic" code by A. Dal Corso  v.5.1
     Using radial grid of 1085 points,  4 beta functions with: 
                l(1) =   0
                l(2) =   0
                l(3) =   1
                l(4) =   1
     Q(r) pseudized with 0 coefficients 


     atomic species   valence    mass     pseudopotential
     B                 3.00    10.81100     B ( 1.00)
     N                 5.00    14.00670     N ( 1.00)

      2 Sym. Ops. (no inversion) found


                                    s                        frac. trans.

      isym =  1     identity                                     

 cryst.   s( 1) = (     1          0          0      )
                  (     0          1          0      )
                  (     0          0          1      )

 cart.    s( 1) = (  1.0000000  0.0000000  0.0000000 )
                  (  0.0000000  1.0000000  0.0000000 )
                  (  0.0000000  0.0000000  1.0000000 )


      isym =  2     inv. 180 deg rotation - cryst. axis [1,-1,0] 

 cryst.   s( 2) = (     0          1          0      )
                  (     1          0          0      )
                  (     0          0          1      )

 cart.    s( 2) = ( -0.5000000  0.8660254  0.0000000 )
                  (  0.8660254  0.5000000  0.0000000 )
                  (  0.0000000  0.0000000  1.0000000 )


   Cartesian axes

     site n.     atom                  positions (alat units)
         1        B      tau(   1) = (   0.0000000   0.0000000   5.2859524  )
         2        B      tau(   2) = (   0.1666667   0.2886751   6.4606085  )
         3        N      tau(   3) = (   0.1666667   0.2886751   5.2859524  )
         4        N      tau(   4) = (   0.3333333   0.5773503   6.4606085  )

     --------------------------------------------
     DFT-D3 Dispersion Correction (3-body terms):
     --------------------------------------------
       Reference C6 values for interpolation: 

         atom   Coordination number   C6
         B          0.000           214.36
         B          0.971           150.74
         B          1.944           106.23
         B          2.913            62.89
         B          4.586            56.06
         N          0.000            50.54
         N          0.994            44.25
         N          2.014            39.35
         N          2.990            31.16

       Values used:

         atom   Coordination number  R0_AB[au]  C6      C8
         B          2.446            3.039     81.32   3240.24
         B          2.447            3.039     81.25   3237.61
         N          2.286            2.478     38.01    838.56
         N          2.285            2.478     38.02    838.71

         Molecular C6 ( Ry / a.u.^6 ) =       911.88


   Crystallographic axes

     site n.     atom                  positions (cryst. coord.)
         1        B      tau(   1) = (  0.0000000  0.0000000  0.4500000  )
         2        B      tau(   2) = (  0.3333333  0.3333333  0.5500000  )
         3        N      tau(   3) = (  0.3333333  0.3333333  0.4500000  )
         4        N      tau(   4) = (  0.6666667  0.6666667  0.5500000  )

     number of k points=    64
                       cart. coord. in units 2pi/alat
        k(    1) = (   0.0000000   0.0000000   0.0000000), wk =   0.0088889
        k(    2) = (   0.0000000   0.0769800   0.0000000), wk =   0.0355556
        k(    3) = (   0.0000000   0.1539601   0.0000000), wk =   0.0355556
        k(    4) = (   0.0000000   0.2309401   0.0000000), wk =   0.0355556
        k(    5) = (   0.0000000   0.3079201   0.0000000), wk =   0.0355556
        k(    6) = (   0.0000000   0.3849002   0.0000000), wk =   0.0355556
        k(    7) = (   0.0000000   0.4618802   0.0000000), wk =   0.0355556
        k(    8) = (   0.0000000   0.5388603   0.0000000), wk =   0.0355556
        k(    9) = (   0.0666667   0.1154701   0.0000000), wk =   0.0177778
        k(   10) = (   0.0666667   0.1924501   0.0000000), wk =   0.0355556
        k(   11) = (   0.0666667   0.2694301   0.0000000), wk =   0.0355556
        k(   12) = (   0.0666667   0.3464102   0.0000000), wk =   0.0355556
        k(   13) = (   0.0666667   0.4233902   0.0000000), wk =   0.0355556
        k(   14) = (   0.0666667   0.5003702   0.0000000), wk =   0.0355556
        k(   15) = (   0.0666667   0.5773503   0.0000000), wk =   0.0355556
        k(   16) = (   0.1333333   0.2309401   0.0000000), wk =   0.0177778
        k(   17) = (   0.1333333   0.3079201   0.0000000), wk =   0.0355556
        k(   18) = (   0.1333333   0.3849002   0.0000000), wk =   0.0355556
        k(   19) = (   0.1333333   0.4618802   0.0000000), wk =   0.0355556
        k(   20) = (   0.1333333   0.5388603   0.0000000), wk =   0.0355556
        k(   21) = (   0.2000000   0.3464102   0.0000000), wk =   0.0177778
        k(   22) = (   0.2000000   0.4233902   0.0000000), wk =   0.0355556
        k(   23) = (   0.2000000   0.5003702   0.0000000), wk =   0.0355556
        k(   24) = (   0.2000000   0.5773503   0.0000000), wk =   0.0355556
        k(   25) = (   0.2666667   0.4618802   0.0000000), wk =   0.0177778
        k(   26) = (   0.2666667   0.5388603   0.0000000), wk =   0.0355556
        k(   27) = (   0.3333333   0.5773503   0.0000000), wk =   0.0177778
        k(   28) = (  -0.0666667   0.0384900   0.0000000), wk =   0.0177778
        k(   29) = (  -0.1333333   0.0769800   0.0000000), wk =   0.0177778
        k(   30) = (  -0.2000000   0.1154701   0.0000000), wk =   0.0177778
        k(   31) = (  -0.2666667   0.1539601   0.0000000), wk =   0.0177778
        k(   32) = (  -0.3333333   0.1924501   0.0000000), wk =   0.0177778
        k(   33) = (  -0.4000000   0.2309401   0.0000000), wk =   0.0177778
        k(   34) = (  -0.4666667   0.2694301   0.0000000), wk =   0.0177778
        k(   35) = (  -0.0666667   0.1154701   0.0000000), wk =   0.0355556
        k(   36) = (  -0.0666667   0.1924501   0.0000000), wk =   0.0355556
        k(   37) = (  -0.1333333   0.1539601   0.0000000), wk =   0.0355556
        k(   38) = (  -0.0666667   0.2694301   0.0000000), wk =   0.0355556
        k(   39) = (  -0.2000000   0.1924501   0.0000000), wk =   0.0355556
        k(   40) = (  -0.0666667   0.3464102   0.0000000), wk =   0.0355556
        k(   41) = (  -0.2666667   0.2309401   0.0000000), wk =   0.0355556
        k(   42) = (  -0.0666667   0.4233902   0.0000000), wk =   0.0355556
        k(   43) = (  -0.3333333   0.2694301   0.0000000), wk =   0.0355556
        k(   44) = (  -0.0666667   0.5003702   0.0000000), wk =   0.0355556
        k(   45) = (  -0.4000000   0.3079201   0.0000000), wk =   0.0355556
        k(   46) = (  -0.4666667   0.3464102   0.0000000), wk =   0.0177778
        k(   47) = (  -0.1333333   0.2309401   0.0000000), wk =   0.0355556
        k(   48) = (  -0.1333333   0.3079201   0.0000000), wk =   0.0355556
        k(   49) = (  -0.2000000   0.2694301   0.0000000), wk =   0.0355556
        k(   50) = (  -0.1333333   0.3849002   0.0000000), wk =   0.0355556
        k(   51) = (  -0.2666667   0.3079201   0.0000000), wk =   0.0355556
        k(   52) = (  -0.1333333   0.4618802   0.0000000), wk =   0.0355556
        k(   53) = (  -0.3333333   0.3464102   0.0000000), wk =   0.0355556
        k(   54) = (  -0.1333333   0.5388603   0.0000000), wk =   0.0355556
        k(   55) = (  -0.4000000   0.3849002   0.0000000), wk =   0.0355556
        k(   56) = (  -0.2000000   0.3464102   0.0000000), wk =   0.0355556
        k(   57) = (  -0.2000000   0.4233902   0.0000000), wk =   0.0355556
        k(   58) = (  -0.2666667   0.3849002   0.0000000), wk =   0.0355556
        k(   59) = (  -0.2000000   0.5003702   0.0000000), wk =   0.0355556
        k(   60) = (  -0.3333333   0.4233902   0.0000000), wk =   0.0355556
        k(   61) = (  -0.4000000   0.4618802   0.0000000), wk =   0.0177778
        k(   62) = (  -0.2666667   0.4618802   0.0000000), wk =   0.0355556
        k(   63) = (  -0.2666667   0.5388603   0.0000000), wk =   0.0355556
        k(   64) = (  -0.3333333   0.5003702   0.0000000), wk =   0.0355556

                       cryst. coord.
        k(    1) = (   0.0000000   0.0000000   0.0000000), wk =   0.0088889
        k(    2) = (   0.0000000   0.0666667   0.0000000), wk =   0.0355556
        k(    3) = (   0.0000000   0.1333333   0.0000000), wk =   0.0355556
        k(    4) = (   0.0000000   0.2000000   0.0000000), wk =   0.0355556
        k(    5) = (   0.0000000   0.2666667   0.0000000), wk =   0.0355556
        k(    6) = (   0.0000000   0.3333333   0.0000000), wk =   0.0355556
        k(    7) = (   0.0000000   0.4000000   0.0000000), wk =   0.0355556
        k(    8) = (   0.0000000   0.4666667   0.0000000), wk =   0.0355556
        k(    9) = (   0.0666667   0.0666667   0.0000000), wk =   0.0177778
        k(   10) = (   0.0666667   0.1333333   0.0000000), wk =   0.0355556
        k(   11) = (   0.0666667   0.2000000   0.0000000), wk =   0.0355556
        k(   12) = (   0.0666667   0.2666667   0.0000000), wk =   0.0355556
        k(   13) = (   0.0666667   0.3333333   0.0000000), wk =   0.0355556
        k(   14) = (   0.0666667   0.4000000   0.0000000), wk =   0.0355556
        k(   15) = (   0.0666667   0.4666667   0.0000000), wk =   0.0355556
        k(   16) = (   0.1333333   0.1333333   0.0000000), wk =   0.0177778
        k(   17) = (   0.1333333   0.2000000   0.0000000), wk =   0.0355556
        k(   18) = (   0.1333333   0.2666667   0.0000000), wk =   0.0355556
        k(   19) = (   0.1333333   0.3333333   0.0000000), wk =   0.0355556
        k(   20) = (   0.1333333   0.4000000   0.0000000), wk =   0.0355556
        k(   21) = (   0.2000000   0.2000000   0.0000000), wk =   0.0177778
        k(   22) = (   0.2000000   0.2666667   0.0000000), wk =   0.0355556
        k(   23) = (   0.2000000   0.3333333   0.0000000), wk =   0.0355556
        k(   24) = (   0.2000000   0.4000000   0.0000000), wk =   0.0355556
        k(   25) = (   0.2666667   0.2666667   0.0000000), wk =   0.0177778
        k(   26) = (   0.2666667   0.3333333   0.0000000), wk =   0.0355556
        k(   27) = (   0.3333333   0.3333333   0.0000000), wk =   0.0177778
        k(   28) = (  -0.0666667   0.0666667   0.0000000), wk =   0.0177778
        k(   29) = (  -0.1333333   0.1333333   0.0000000), wk =   0.0177778
        k(   30) = (  -0.2000000   0.2000000   0.0000000), wk =   0.0177778
        k(   31) = (  -0.2666667   0.2666667   0.0000000), wk =   0.0177778
        k(   32) = (  -0.3333333   0.3333333   0.0000000), wk =   0.0177778
        k(   33) = (  -0.4000000   0.4000000   0.0000000), wk =   0.0177778
        k(   34) = (  -0.4666667   0.4666667   0.0000000), wk =   0.0177778
        k(   35) = (  -0.0666667   0.1333333   0.0000000), wk =   0.0355556
        k(   36) = (  -0.0666667   0.2000000   0.0000000), wk =   0.0355556
        k(   37) = (  -0.1333333   0.2000000   0.0000000), wk =   0.0355556
        k(   38) = (  -0.0666667   0.2666667   0.0000000), wk =   0.0355556
        k(   39) = (  -0.2000000   0.2666667   0.0000000), wk =   0.0355556
        k(   40) = (  -0.0666667   0.3333333   0.0000000), wk =   0.0355556
        k(   41) = (  -0.2666667   0.3333333   0.0000000), wk =   0.0355556
        k(   42) = (  -0.0666667   0.4000000   0.0000000), wk =   0.0355556
        k(   43) = (  -0.3333333   0.4000000   0.0000000), wk =   0.0355556
        k(   44) = (  -0.0666667   0.4666667   0.0000000), wk =   0.0355556
        k(   45) = (  -0.4000000   0.4666667   0.0000000), wk =   0.0355556
        k(   46) = (  -0.4666667   0.5333333   0.0000000), wk =   0.0177778
        k(   47) = (  -0.1333333   0.2666667   0.0000000), wk =   0.0355556
        k(   48) = (  -0.1333333   0.3333333   0.0000000), wk =   0.0355556
        k(   49) = (  -0.2000000   0.3333333   0.0000000), wk =   0.0355556
        k(   50) = (  -0.1333333   0.4000000   0.0000000), wk =   0.0355556
        k(   51) = (  -0.2666667   0.4000000   0.0000000), wk =   0.0355556
        k(   52) = (  -0.1333333   0.4666667   0.0000000), wk =   0.0355556
        k(   53) = (  -0.3333333   0.4666667   0.0000000), wk =   0.0355556
        k(   54) = (  -0.1333333   0.5333333   0.0000000), wk =   0.0355556
        k(   55) = (  -0.4000000   0.5333333   0.0000000), wk =   0.0355556
        k(   56) = (  -0.2000000   0.4000000   0.0000000), wk =   0.0355556
        k(   57) = (  -0.2000000   0.4666667   0.0000000), wk =   0.0355556
        k(   58) = (  -0.2666667   0.4666667   0.0000000), wk =   0.0355556
        k(   59) = (  -0.2000000   0.5333333   0.0000000), wk =   0.0355556
        k(   60) = (  -0.3333333   0.5333333   0.0000000), wk =   0.0355556
        k(   61) = (  -0.4000000   0.6000000   0.0000000), wk =   0.0177778
        k(   62) = (  -0.2666667   0.5333333   0.0000000), wk =   0.0355556
        k(   63) = (  -0.2666667   0.6000000   0.0000000), wk =   0.0355556
        k(   64) = (  -0.3333333   0.6000000   0.0000000), wk =   0.0355556

     Dense  grid:   202991 G-vectors     FFT dimensions: (  36,  36, 400)

     Smooth grid:    71685 G-vectors     FFT dimensions: (  24,  24, 288)

     Dynamical RAM for                 wfc:       0.27 MB

     Dynamical RAM for     wfc (w. buffer):      17.80 MB

     Dynamical RAM for           str. fact:       1.55 MB

     Dynamical RAM for           local pot:       0.00 MB

     Dynamical RAM for          nlocal pot:       1.10 MB

     Dynamical RAM for                qrad:       2.01 MB

     Dynamical RAM for          rho,v,vnew:       5.29 MB

     Dynamical RAM for               rhoin:       1.76 MB

     Dynamical RAM for            rho*nmix:      12.38 MB

     Dynamical RAM for           G-vectors:       3.04 MB

     Dynamical RAM for          h,s,v(r/c):       0.01 MB

     Dynamical RAM for          <psi|beta>:       0.00 MB

     Dynamical RAM for                 psi:       0.55 MB

     Dynamical RAM for                hpsi:       0.55 MB

     Dynamical RAM for                spsi:       0.55 MB

     Dynamical RAM for      wfcinit/wfcrot:       0.55 MB

     Dynamical RAM for           addusdens:      34.83 MB

     Dynamical RAM for          addusforce:      36.77 MB

     Dynamical RAM for         addusstress:      38.70 MB

     Estimated static dynamical RAM per process >      39.81 MB

     Estimated max dynamical RAM per process >      90.89 MB

     Estimated total dynamical RAM >     363.57 MB

     Initial potential from superposition of free atoms

     starting charge      15.9994, renormalised to      16.0000

     negative rho (up, down):  3.952E-05 0.000E+00
     Starting wfcs are   16 randomized atomic wfcs

     total cpu time spent up to now is        2.8 secs

     per-process dynamical memory:   389.1 Mb

     Self-consistent Calculation
[tb_dev] Currently allocated     5.62E-01 Mbytes, locked:    0 /   6
[tb_pin] Currently allocated     0.00E+00 Mbytes, locked:    0 /   0

     iteration #  1     ecut=    60.00 Ry     beta= 0.40
     Davidson diagonalization with overlap

---- Real-time Memory Report at c_bands before calling an iterative solver
           871 MiB given to the printing process from OS
           380 MiB allocation reported by mallinfo(arena+hblkhd)
        825445 MiB available memory on the node where the printing process lives
     GPU memory used/free/total (MiB): 2088 / 94679 / 96768
------------------
     ethr =  1.00E-02,  avg # of iterations =  3.0

     negative rho (up, down):  2.366E-05 0.000E+00

     total cpu time spent up to now is        4.1 secs

     total energy              =     -50.22794840 Ry
     estimated scf accuracy    <       3.15650566 Ry
[tb_dev] Currently allocated     3.05E-05 Mbytes, locked:    0 /   2
[tb_pin] Currently allocated     0.00E+00 Mbytes, locked:    0 /   0

     iteration #  2     ecut=    60.00 Ry     beta= 0.40
     Davidson diagonalization with overlap

---- Real-time Memory Report at c_bands before calling an iterative solver
           897 MiB given to the printing process from OS
           428 MiB allocation reported by mallinfo(arena+hblkhd)
        825307 MiB available memory on the node where the printing process lives
     GPU memory used/free/total (MiB): 2097 / 94670 / 96768
------------------
     ethr =  1.00E-02,  avg # of iterations =  2.0

     negative rho (up, down):  3.614E-05 0.000E+00

     total cpu time spent up to now is        4.6 secs

     total energy              =     -50.40127717 Ry
     estimated scf accuracy    <       0.36099712 Ry
[tb_dev] Currently allocated     3.05E-05 Mbytes, locked:    0 /   2
[tb_pin] Currently allocated     0.00E+00 Mbytes, locked:    0 /   0

     iteration #  3     ecut=    60.00 Ry     beta= 0.40
     Davidson diagonalization with overlap

---- Real-time Memory Report at c_bands before calling an iterative solver
           900 MiB given to the printing process from OS
           428 MiB allocation reported by mallinfo(arena+hblkhd)
        825288 MiB available memory on the node where the printing process lives
     GPU memory used/free/total (MiB): 2098 / 94669 / 96768
------------------
     ethr =  2.26E-03,  avg # of iterations =  4.0

     negative rho (up, down):  4.771E-05 0.000E+00

     total cpu time spent up to now is        5.5 secs

     total energy              =     -50.53814459 Ry
     estimated scf accuracy    <       0.13164895 Ry
[tb_dev] Currently allocated     3.05E-05 Mbytes, locked:    0 /   2
[tb_pin] Currently allocated     0.00E+00 Mbytes, locked:    0 /   0

     iteration #  4     ecut=    60.00 Ry     beta= 0.40
     Davidson diagonalization with overlap

---- Real-time Memory Report at c_bands before calling an iterative solver
           920 MiB given to the printing process from OS
           448 MiB allocation reported by mallinfo(arena+hblkhd)
        825216 MiB available memory on the node where the printing process lives
     GPU memory used/free/total (MiB): 2099 / 94668 / 96768
------------------
     ethr =  8.23E-04,  avg # of iterations =  4.9

     negative rho (up, down):  4.876E-05 0.000E+00

     total cpu time spent up to now is        6.4 secs

     total energy              =     -50.51368631 Ry
     estimated scf accuracy    <       0.33048257 Ry
[tb_dev] Currently allocated     3.05E-05 Mbytes, locked:    0 /   2
[tb_pin] Currently allocated     0.00E+00 Mbytes, locked:    0 /   0

     iteration #  5     ecut=    60.00 Ry     beta= 0.40
     Davidson diagonalization with overlap

---- Real-time Memory Report at c_bands before calling an iterative solver
           920 MiB given to the printing process from OS
           448 MiB allocation reported by mallinfo(arena+hblkhd)
        825207 MiB available memory on the node where the printing process lives
     GPU memory used/free/total (MiB): 2099 / 94668 / 96768
------------------
     ethr =  8.23E-04,  avg # of iterations =  3.1

     negative rho (up, down):  4.557E-05 0.000E+00

     total cpu time spent up to now is        7.0 secs

     total energy              =     -50.56276965 Ry
     estimated scf accuracy    <       0.00630275 Ry
[tb_dev] Currently allocated     3.05E-05 Mbytes, locked:    0 /   2
[tb_pin] Currently allocated     0.00E+00 Mbytes, locked:    0 /   0

     iteration #  6     ecut=    60.00 Ry     beta= 0.40
     Davidson diagonalization with overlap

---- Real-time Memory Report at c_bands before calling an iterative solver
           924 MiB given to the printing process from OS
           449 MiB allocation reported by mallinfo(arena+hblkhd)
        825207 MiB available memory on the node where the printing process lives
     GPU memory used/free/total (MiB): 2099 / 94668 / 96768
------------------
     ethr =  3.94E-05,  avg # of iterations =  6.0

     negative rho (up, down):  4.733E-05 0.000E+00

     total cpu time spent up to now is        8.1 secs

     total energy              =     -50.57401560 Ry
     estimated scf accuracy    <       0.01396212 Ry
[tb_dev] Currently allocated     3.05E-05 Mbytes, locked:    0 /   2
[tb_pin] Currently allocated     0.00E+00 Mbytes, locked:    0 /   0

     iteration #  7     ecut=    60.00 Ry     beta= 0.40
     Davidson diagonalization with overlap

---- Real-time Memory Report at c_bands before calling an iterative solver
           924 MiB given to the printing process from OS
           449 MiB allocation reported by mallinfo(arena+hblkhd)
        825190 MiB available memory on the node where the printing process lives
     GPU memory used/free/total (MiB): 2099 / 94668 / 96768
------------------
     ethr =  3.94E-05,  avg # of iterations =  1.0

     negative rho (up, down):  4.778E-05 0.000E+00

     total cpu time spent up to now is        8.5 secs

     total energy              =     -50.57061551 Ry
     estimated scf accuracy    <       0.00730022 Ry
[tb_dev] Currently allocated     3.05E-05 Mbytes, locked:    0 /   2
[tb_pin] Currently allocated     0.00E+00 Mbytes, locked:    0 /   0

     iteration #  8     ecut=    60.00 Ry     beta= 0.40
     Davidson diagonalization with overlap

---- Real-time Memory Report at c_bands before calling an iterative solver
           924 MiB given to the printing process from OS
           450 MiB allocation reported by mallinfo(arena+hblkhd)
        825181 MiB available memory on the node where the printing process lives
     GPU memory used/free/total (MiB): 2099 / 94668 / 96768
------------------
     ethr =  3.94E-05,  avg # of iterations =  2.2

     negative rho (up, down):  4.816E-05 0.000E+00

     total cpu time spent up to now is        9.0 secs

     total energy              =     -50.57200457 Ry
     estimated scf accuracy    <       0.00022687 Ry
[tb_dev] Currently allocated     3.05E-05 Mbytes, locked:    0 /   2
[tb_pin] Currently allocated     0.00E+00 Mbytes, locked:    0 /   0

     iteration #  9     ecut=    60.00 Ry     beta= 0.40
     Davidson diagonalization with overlap

---- Real-time Memory Report at c_bands before calling an iterative solver
           928 MiB given to the printing process from OS
           451 MiB allocation reported by mallinfo(arena+hblkhd)
        825181 MiB available memory on the node where the printing process lives
     GPU memory used/free/total (MiB): 2099 / 94668 / 96768
------------------
     ethr =  1.42E-06,  avg # of iterations =  6.0

     negative rho (up, down):  4.851E-05 0.000E+00

     total cpu time spent up to now is       10.1 secs

     total energy              =     -50.57241098 Ry
     estimated scf accuracy    <       0.00018518 Ry
[tb_dev] Currently allocated     3.05E-05 Mbytes, locked:    0 /   2
[tb_pin] Currently allocated     0.00E+00 Mbytes, locked:    0 /   0

     iteration # 10     ecut=    60.00 Ry     beta= 0.40
     Davidson diagonalization with overlap

---- Real-time Memory Report at c_bands before calling an iterative solver
           928 MiB given to the printing process from OS
           451 MiB allocation reported by mallinfo(arena+hblkhd)
        825180 MiB available memory on the node where the printing process lives
     GPU memory used/free/total (MiB): 2099 / 94668 / 96768
------------------
     ethr =  1.16E-06,  avg # of iterations =  1.0

     negative rho (up, down):  4.881E-05 0.000E+00

     total cpu time spent up to now is       10.5 secs

     total energy              =     -50.57231360 Ry
     estimated scf accuracy    <       0.00017012 Ry
[tb_dev] Currently allocated     3.05E-05 Mbytes, locked:    0 /   2
[tb_pin] Currently allocated     0.00E+00 Mbytes, locked:    0 /   0

     iteration # 11     ecut=    60.00 Ry     beta= 0.40
     Davidson diagonalization with overlap

---- Real-time Memory Report at c_bands before calling an iterative solver
           931 MiB given to the printing process from OS
           451 MiB allocation reported by mallinfo(arena+hblkhd)
        825171 MiB available memory on the node where the printing process lives
     GPU memory used/free/total (MiB): 2099 / 94668 / 96768
------------------
     ethr =  1.06E-06,  avg # of iterations =  2.4

     negative rho (up, down):  4.893E-05 0.000E+00

     total cpu time spent up to now is       11.1 secs

     total energy              =     -50.57235241 Ry
     estimated scf accuracy    <       0.00000044 Ry
[tb_dev] Currently allocated     3.05E-05 Mbytes, locked:    0 /   2
[tb_pin] Currently allocated     0.00E+00 Mbytes, locked:    0 /   0

     iteration # 12     ecut=    60.00 Ry     beta= 0.40
     Davidson diagonalization with overlap

---- Real-time Memory Report at c_bands before calling an iterative solver
           931 MiB given to the printing process from OS
           451 MiB allocation reported by mallinfo(arena+hblkhd)
        825171 MiB available memory on the node where the printing process lives
     GPU memory used/free/total (MiB): 2099 / 94668 / 96768
------------------
     ethr =  2.76E-09,  avg # of iterations = 11.4

     negative rho (up, down):  4.884E-05 0.000E+00

     total cpu time spent up to now is       12.9 secs

     total energy              =     -50.57235117 Ry
     estimated scf accuracy    <       0.00008181 Ry
[tb_dev] Currently allocated     3.05E-05 Mbytes, locked:    0 /   2
[tb_pin] Currently allocated     0.00E+00 Mbytes, locked:    0 /   0

     iteration # 13     ecut=    60.00 Ry     beta= 0.40
     Davidson diagonalization with overlap

---- Real-time Memory Report at c_bands before calling an iterative solver
           931 MiB given to the printing process from OS
           451 MiB allocation reported by mallinfo(arena+hblkhd)
        825168 MiB available memory on the node where the printing process lives
     GPU memory used/free/total (MiB): 2099 / 94668 / 96768
------------------
     ethr =  2.76E-09,  avg # of iterations =  9.4

     negative rho (up, down):  4.887E-05 0.000E+00

     total cpu time spent up to now is       14.4 secs

     total energy              =     -50.57235597 Ry
     estimated scf accuracy    <       0.00001280 Ry
[tb_dev] Currently allocated     3.05E-05 Mbytes, locked:    0 /   2
[tb_pin] Currently allocated     0.00E+00 Mbytes, locked:    0 /   0

     iteration # 14     ecut=    60.00 Ry     beta= 0.40
     Davidson diagonalization with overlap

---- Real-time Memory Report at c_bands before calling an iterative solver
           931 MiB given to the printing process from OS
           451 MiB allocation reported by mallinfo(arena+hblkhd)
        825167 MiB available memory on the node where the printing process lives
     GPU memory used/free/total (MiB): 2099 / 94668 / 96768
------------------
     ethr =  2.76E-09,  avg # of iterations =  2.2

     negative rho (up, down):  4.885E-05 0.000E+00

     total cpu time spent up to now is       14.9 secs

     total energy              =     -50.57235179 Ry
     estimated scf accuracy    <       0.00001003 Ry
[tb_dev] Currently allocated     3.05E-05 Mbytes, locked:    0 /   2
[tb_pin] Currently allocated     0.00E+00 Mbytes, locked:    0 /   0

     iteration # 15     ecut=    60.00 Ry     beta= 0.40
     Davidson diagonalization with overlap

---- Real-time Memory Report at c_bands before calling an iterative solver
           931 MiB given to the printing process from OS
           451 MiB allocation reported by mallinfo(arena+hblkhd)
        825165 MiB available memory on the node where the printing process lives
     GPU memory used/free/total (MiB): 2099 / 94668 / 96768
------------------
     ethr =  2.76E-09,  avg # of iterations =  6.7

     negative rho (up, down):  4.886E-05 0.000E+00

     total cpu time spent up to now is       16.1 secs

     total energy              =     -50.57235310 Ry
     estimated scf accuracy    <       0.00000035 Ry
[tb_dev] Currently allocated     3.05E-05 Mbytes, locked:    0 /   2
[tb_pin] Currently allocated     0.00E+00 Mbytes, locked:    0 /   0

     iteration # 16     ecut=    60.00 Ry     beta= 0.40
     Davidson diagonalization with overlap

---- Real-time Memory Report at c_bands before calling an iterative solver
           932 MiB given to the printing process from OS
           451 MiB allocation reported by mallinfo(arena+hblkhd)
        825146 MiB available memory on the node where the printing process lives
     GPU memory used/free/total (MiB): 2099 / 94668 / 96768
------------------
     ethr =  2.18E-09,  avg # of iterations =  2.9

     negative rho (up, down):  4.887E-05 0.000E+00

     total cpu time spent up to now is       16.7 secs

     total energy              =     -50.57235321 Ry
     estimated scf accuracy    <          5.1E-09 Ry
[tb_dev] Currently allocated     3.05E-05 Mbytes, locked:    0 /   2
[tb_pin] Currently allocated     0.00E+00 Mbytes, locked:    0 /   0

     iteration # 17     ecut=    60.00 Ry     beta= 0.40
     Davidson diagonalization with overlap

---- Real-time Memory Report at c_bands before calling an iterative solver
           932 MiB given to the printing process from OS
           451 MiB allocation reported by mallinfo(arena+hblkhd)
        825142 MiB available memory on the node where the printing process lives
     GPU memory used/free/total (MiB): 2099 / 94668 / 96768
------------------
     ethr =  3.19E-11,  avg # of iterations =  4.6

     negative rho (up, down):  4.888E-05 0.000E+00

     total cpu time spent up to now is       17.6 secs

     total energy              =     -50.57235320 Ry
     estimated scf accuracy    <       0.00000005 Ry
[tb_dev] Currently allocated     3.05E-05 Mbytes, locked:    0 /   2
[tb_pin] Currently allocated     0.00E+00 Mbytes, locked:    0 /   0

     iteration # 18     ecut=    60.00 Ry     beta= 0.40
     Davidson diagonalization with overlap

---- Real-time Memory Report at c_bands before calling an iterative solver
           932 MiB given to the printing process from OS
           451 MiB allocation reported by mallinfo(arena+hblkhd)
        825141 MiB available memory on the node where the printing process lives
     GPU memory used/free/total (MiB): 2099 / 94668 / 96768
------------------
     ethr =  3.19E-11,  avg # of iterations =  4.2

     negative rho (up, down):  4.888E-05 0.000E+00

     total cpu time spent up to now is       18.4 secs

     total energy              =     -50.57235320 Ry
     estimated scf accuracy    <       0.00000001 Ry
[tb_dev] Currently allocated     3.05E-05 Mbytes, locked:    0 /   2
[tb_pin] Currently allocated     0.00E+00 Mbytes, locked:    0 /   0

     iteration # 19     ecut=    60.00 Ry     beta= 0.40
     Davidson diagonalization with overlap

---- Real-time Memory Report at c_bands before calling an iterative solver
           932 MiB given to the printing process from OS
           451 MiB allocation reported by mallinfo(arena+hblkhd)
        825141 MiB available memory on the node where the printing process lives
     GPU memory used/free/total (MiB): 2099 / 94668 / 96768
------------------
     ethr =  3.19E-11,  avg # of iterations =  4.2

     negative rho (up, down):  4.889E-05 0.000E+00

     total cpu time spent up to now is       19.2 secs

     End of self-consistent calculation

          k = 0.0000 0.0000 0.0000 (  8821 PWs)   bands (ev):

   -20.0203 -19.7146 -10.2020  -8.9692  -8.5580  -8.3994  -4.5486  -4.4834

     occupation numbers 
     1.0000   1.0000   1.0000   1.0000   1.0000   1.0000   1.0000   1.0000

          k = 0.0000 0.0770 0.0000 (  8883 PWs)   bands (ev):

   -19.9645 -19.6636 -10.1098  -8.9104  -8.5947  -8.4144  -4.6203  -4.5552

     occupation numbers 
     1.0000   1.0000   1.0000   1.0000   1.0000   1.0000   1.0000   1.0000

          k = 0.0000 0.1540 0.0000 (  8887 PWs)   bands (ev):

   -19.8018 -19.5151  -9.8414  -8.8242  -8.7052  -8.3915  -4.8008  -4.7355

     occupation numbers 
     1.0000   1.0000   1.0000   1.0000   1.0000   1.0000   1.0000   1.0000

          k = 0.0000 0.2309 0.0000 (  8918 PWs)   bands (ev):

   -19.5469 -19.2839  -9.4483  -8.9628  -8.8713  -8.1228  -5.0090  -4.9429

     occupation numbers 
     1.0000   1.0000   1.0000   1.0000   1.0000   1.0000   1.0000   1.0000

          k = 0.0000 0.3079 0.0000 (  8958 PWs)   bands (ev):

   -19.2272 -18.9973  -9.4087  -9.2471  -8.6997  -7.6771  -5.1700  -5.1019

     occupation numbers 
     1.0000   1.0000   1.0000   1.0000   1.0000   1.0000   1.0000   1.0000

          k = 0.0000 0.3849 0.0000 (  8954 PWs)   bands (ev):

   -18.8865 -18.6980  -9.7786  -9.6281  -8.0819  -7.1872  -5.2550  -5.1845

     occupation numbers 
     1.0000   1.0000   1.0000   1.0000   1.0000   1.0000   1.0000   1.0000

          k = 0.0000 0.4619 0.0000 (  8964 PWs)   bands (ev):

   -18.5872 -18.4450 -10.1417  -9.9827  -7.4548  -6.7759  -5.2813  -5.2091

     occupation numbers 
     1.0000   1.0000   1.0000   1.0000   1.0000   1.0000   1.0000   1.0000

          k = 0.0000 0.5389 0.0000 (  8990 PWs)   bands (ev):

   -18.4054 -18.3006 -10.3631 -10.1969  -7.0188  -6.5662  -5.2824  -5.2101

     occupation numbers 
     1.0000   1.0000   1.0000   1.0000   1.0000   1.0000   1.0000   1.0000

          k = 0.0667 0.1155 0.0000 (  8878 PWs)   bands (ev):

   -19.8761 -19.5864  -9.9134  -8.8024  -8.6109  -8.3659  -4.6331  -4.5714

     occupation numbers 
     1.0000   1.0000   1.0000   1.0000   1.0000   1.0000   1.0000   1.0000

          k = 0.0667 0.1925 0.0000 (  8901 PWs)   bands (ev):

   -19.6856 -19.4162  -9.5570  -8.7655  -8.6733  -8.1898  -4.8162  -4.7554

     occupation numbers 
     1.0000   1.0000   1.0000   1.0000   1.0000   1.0000   1.0000   1.0000

          k = 0.0667 0.2694 0.0000 (  8931 PWs)   bands (ev):

   -19.4113 -19.1707  -9.1805  -8.8988  -8.7276  -7.8096  -5.0928  -5.0286

     occupation numbers 
     1.0000   1.0000   1.0000   1.0000   1.0000   1.0000   1.0000   1.0000

          k = 0.0667 0.3464 0.0000 (  8962 PWs)   bands (ev):

   -19.0845 -18.8806  -9.3324  -9.1737  -8.2830  -7.3364  -5.3534  -5.2830

     occupation numbers 
     1.0000   1.0000   1.0000   1.0000   1.0000   1.0000   1.0000   1.0000

          k = 0.0667 0.4234 0.0000 (  8970 PWs)   bands (ev):

   -18.7526 -18.5915  -9.7171  -9.5601  -7.6528  -6.8908  -5.5240  -5.4473

     occupation numbers 
     1.0000   1.0000   1.0000   1.0000   1.0000   1.0000   1.0000   1.0000

          k = 0.0667 0.5004 0.0000 (  8980 PWs)   bands (ev):

   -18.4813 -18.3623 -10.1001  -9.9366  -7.1253  -6.6022  -5.5994  -5.5177

     occupation numbers 
     1.0000   1.0000   1.0000   1.0000   1.0000   1.0000   1.0000   1.0000

          k = 0.0667 0.5774 0.0000 (  9002 PWs)   bands (ev):

   -18.3470 -18.2487 -10.3445 -10.1777  -6.9374  -6.5303  -5.6165  -5.5305

     occupation numbers 
     1.0000   1.0000   1.0000   1.0000   1.0000   1.0000   1.0000   1.0000

          k = 0.1333 0.2309 0.0000 (  8950 PWs)   bands (ev):

   -19.4745 -19.2303  -9.1710  -8.7627  -8.6402  -7.8478  -5.1145  -5.0468

     occupation numbers 
     1.0000   1.0000   1.0000   1.0000   1.0000   1.0000   1.0000   1.0000

          k = 0.1333 0.3079 0.0000 (  8986 PWs)   bands (ev):

   -19.1897 -18.9781  -9.0219  -8.8361  -8.3559  -7.4095  -5.5927  -5.5079

     occupation numbers 
     1.0000   1.0000   1.0000   1.0000   1.0000   1.0000   1.0000   1.0000

          k = 0.1333 0.3849 0.0000 (  8993 PWs)   bands (ev):

   -18.8654 -18.6920  -9.2324  -9.0709  -7.7770  -6.9661  -6.0518  -5.9529

     occupation numbers 
     1.0000   1.0000   1.0000   1.0000   1.0000   1.0000   1.0000   1.0000

          k = 0.1333 0.4619 0.0000 (  9009 PWs)   bands (ev):

   -18.5517 -18.4186  -9.6165  -9.4561  -7.2208  -6.6443  -6.3251  -6.2280

     occupation numbers 
     1.0000   1.0000   1.0000   1.0000   1.0000   1.0000   1.0000   1.0000

          k = 0.1333 0.5389 0.0000 (  9016 PWs)   bands (ev):

   -18.3161 -18.2143 -10.0348  -9.8701  -6.9050  -6.5560  -6.3804  -6.3164

     occupation numbers 
     1.0000   1.0000   1.0000   1.0000   1.0000   1.0000   1.0000   1.0000

          k = 0.2000 0.3464 0.0000 (  8984 PWs)   bands (ev):

   -18.9053 -18.7277  -8.9878  -8.8172  -7.8113  -6.9864  -6.3518  -6.2350

     occupation numbers 
     1.0000   1.0000   1.0000   1.0000   1.0000   1.0000   1.0000   1.0000

          k = 0.2000 0.4234 0.0000 (  9013 PWs)   bands (ev):

   -18.5937 -18.4524  -9.1033  -8.9384  -7.2681  -7.0681  -6.9219  -6.6313

     occupation numbers 
     1.0000   1.0000   1.0000   1.0000   1.0000   1.0000   1.0000   1.0000

          k = 0.2000 0.5004 0.0000 (  9020 PWs)   bands (ev):

   -18.3059 -18.1971  -9.4776  -9.3177  -7.4379  -7.3104  -6.8598  -6.4401

     occupation numbers 
     1.0000   1.0000   1.0000   1.0000   1.0000   1.0000   1.0000   1.0000

          k = 0.2000 0.5774 0.0000 (  9072 PWs)   bands (ev):

   -18.1095 -18.0135  -9.9799  -9.8147  -7.4835  -7.3548  -6.8260  -6.4147

     occupation numbers 
     1.0000   1.0000   1.0000   1.0000   1.0000   1.0000   1.0000   1.0000

          k = 0.2667 0.4619 0.0000 (  9020 PWs)   bands (ev):

   -18.3044 -18.1924  -8.9932  -8.8263  -8.0939  -7.9226  -6.8700  -6.4314

     occupation numbers 
     1.0000   1.0000   1.0000   1.0000   1.0000   1.0000   1.0000   1.0000

          k = 0.2667 0.5389 0.0000 (  9046 PWs)   bands (ev):

   -18.0474 -17.9524  -9.3567  -9.1962  -8.4918  -8.3419  -6.7561  -6.3647

     occupation numbers 
     1.0000   1.0000   1.0000   1.0000   1.0000   1.0000   1.0000   1.0000

          k = 0.3333 0.5774 0.0000 (  9048 PWs)   bands (ev):

   -17.8197 -17.7211  -9.7632  -9.5568  -8.8872  -8.7341  -6.8887  -6.3953

     occupation numbers 
     1.0000   1.0000   1.0000   1.0000   1.0000   1.0000   1.0000   1.0000

          k =-0.0667 0.0385 0.0000 (  8883 PWs)   bands (ev):

   -19.9427 -19.6399 -10.1256  -8.9298  -8.6399  -8.4607  -4.7787  -4.7093

     occupation numbers 
     1.0000   1.0000   1.0000   1.0000   1.0000   1.0000   1.0000   1.0000

          k =-0.1333 0.0770 0.0000 (  8887 PWs)   bands (ev):

   -19.7132 -19.4189  -9.9062  -8.9432  -8.8682  -8.5162  -5.4037  -5.3217

     occupation numbers 
     1.0000   1.0000   1.0000   1.0000   1.0000   1.0000   1.0000   1.0000

          k =-0.2000 0.1155 0.0000 (  8918 PWs)   bands (ev):

   -19.3436 -19.0634  -9.6081  -9.2562  -9.2009  -8.3088  -6.2588  -6.1605

     occupation numbers 
     1.0000   1.0000   1.0000   1.0000   1.0000   1.0000   1.0000   1.0000

          k =-0.2667 0.1540 0.0000 (  8958 PWs)   bands (ev):

   -18.8582 -18.5978  -9.8756  -9.7409  -9.0522  -7.9784  -7.1347  -7.0240

     occupation numbers 
     1.0000   1.0000   1.0000   1.0000   1.0000   1.0000   1.0000   1.0000

          k =-0.3333 0.1925 0.0000 (  8954 PWs)   bands (ev):

   -18.3042 -18.0688 -10.5284 -10.3697  -8.6167  -7.8503  -7.7990  -7.5445

     occupation numbers 
     1.0000   1.0000   1.0000   1.0000   1.0000   1.0000   1.0000   1.0000

          k =-0.4000 0.2309 0.0000 (  8964 PWs)   bands (ev):

   -17.7732 -17.5653 -11.2090 -11.0092  -8.4082  -8.2432  -8.0988  -7.2847

     occupation numbers 
     1.0000   1.0000   1.0000   1.0000   1.0000   1.0000   1.0000   1.0000

          k =-0.4667 0.2694 0.0000 (  8990 PWs)   bands (ev):

   -17.4231 -17.2362 -11.6655 -11.4351  -8.5689  -8.4594  -7.9206  -7.1121

     occupation numbers 
     1.0000   1.0000   1.0000   1.0000   1.0000   1.0000   1.0000   1.0000

          k =-0.0667 0.1155 0.0000 (  8878 PWs)   bands (ev):

   -19.8117 -19.5165  -9.9613  -8.8888  -8.7602  -8.4915  -5.0362  -4.9626

     occupation numbers 
     1.0000   1.0000   1.0000   1.0000   1.0000   1.0000   1.0000   1.0000

          k =-0.0667 0.1925 0.0000 (  8901 PWs)   bands (ev):

   -19.5826 -19.3050  -9.6434  -9.0215  -8.9522  -8.3175  -5.2919  -5.2139

     occupation numbers 
     1.0000   1.0000   1.0000   1.0000   1.0000   1.0000   1.0000   1.0000

          k =-0.1333 0.1540 0.0000 (  8901 PWs)   bands (ev):

   -19.5136 -19.2299  -9.6927  -9.1057  -9.0496  -8.3833  -5.7681  -5.6786

     occupation numbers 
     1.0000   1.0000   1.0000   1.0000   1.0000   1.0000   1.0000   1.0000

          k =-0.0667 0.2694 0.0000 (  8931 PWs)   bands (ev):

   -19.2786 -19.0286  -9.4795  -9.3053  -8.9823  -7.9340  -5.4726  -5.3898

     occupation numbers 
     1.0000   1.0000   1.0000   1.0000   1.0000   1.0000   1.0000   1.0000

          k =-0.2000 0.1925 0.0000 (  8931 PWs)   bands (ev):

   -19.0877 -18.8213  -9.6562  -9.5065  -9.1756  -8.0916  -6.6449  -6.5392

     occupation numbers 
     1.0000   1.0000   1.0000   1.0000   1.0000   1.0000   1.0000   1.0000

          k =-0.0667 0.3464 0.0000 (  8962 PWs)   bands (ev):

   -18.9388 -18.7265  -9.8175  -9.6747  -8.4366  -7.4576  -5.5655  -5.4778

     occupation numbers 
     1.0000   1.0000   1.0000   1.0000   1.0000   1.0000   1.0000   1.0000

          k =-0.2667 0.2309 0.0000 (  8962 PWs)   bands (ev):

   -18.5687 -18.3252 -10.1986 -10.0569  -8.7681  -7.7616  -7.4642  -7.3396

     occupation numbers 
     1.0000   1.0000   1.0000   1.0000   1.0000   1.0000   1.0000   1.0000

          k =-0.0667 0.4234 0.0000 (  8970 PWs)   bands (ev):

   -18.6218 -18.4551 -10.1628 -10.0111  -7.7938  -6.9882  -5.6004  -5.5098

     occupation numbers 
     1.0000   1.0000   1.0000   1.0000   1.0000   1.0000   1.0000   1.0000

          k =-0.3333 0.2694 0.0000 (  8970 PWs)   bands (ev):

   -18.0231 -17.8067 -10.8505 -10.6728  -8.3849  -8.0523  -8.0029  -7.3687

     occupation numbers 
     1.0000   1.0000   1.0000   1.0000   1.0000   1.0000   1.0000   1.0000

          k =-0.0667 0.5004 0.0000 (  8980 PWs)   bands (ev):

   -18.4013 -18.2803 -10.3649 -10.2028  -7.2259  -6.6489  -5.6125  -5.5225

     occupation numbers 
     1.0000   1.0000   1.0000   1.0000   1.0000   1.0000   1.0000   1.0000

          k =-0.4000 0.3079 0.0000 (  8980 PWs)   bands (ev):

   -17.5723 -17.3819 -11.4160 -11.1993  -8.5033  -8.3822  -7.9488  -7.1332

     occupation numbers 
     1.0000   1.0000   1.0000   1.0000   1.0000   1.0000   1.0000   1.0000

          k =-0.4667 0.3464 0.0000 (  9002 PWs)   bands (ev):

   -17.3893 -17.2107 -11.6479 -11.4139  -8.6084  -8.4997  -7.8381  -7.0445

     occupation numbers 
     1.0000   1.0000   1.0000   1.0000   1.0000   1.0000   1.0000   1.0000

          k =-0.1333 0.2309 0.0000 (  8950 PWs)   bands (ev):

   -19.2317 -18.9691  -9.5533  -9.3763  -9.1362  -8.0767  -6.0401  -5.9431

     occupation numbers 
     1.0000   1.0000   1.0000   1.0000   1.0000   1.0000   1.0000   1.0000

          k =-0.1333 0.3079 0.0000 (  8986 PWs)   bands (ev):

   -18.9020 -18.6713  -9.8662  -9.7299  -8.6787  -7.6557  -6.2064  -6.1014

     occupation numbers 
     1.0000   1.0000   1.0000   1.0000   1.0000   1.0000   1.0000   1.0000

          k =-0.2000 0.2694 0.0000 (  8986 PWs)   bands (ev):

   -18.7756 -18.5340  -9.9750  -9.8409  -8.7913  -7.7567  -6.9018  -6.7869

     occupation numbers 
     1.0000   1.0000   1.0000   1.0000   1.0000   1.0000   1.0000   1.0000

          k =-0.1333 0.3849 0.0000 (  8993 PWs)   bands (ev):

   -18.5781 -18.3895 -10.1919 -10.0473  -8.0786  -7.1922  -6.3050  -6.1926

     occupation numbers 
     1.0000   1.0000   1.0000   1.0000   1.0000   1.0000   1.0000   1.0000

          k =-0.2667 0.3079 0.0000 (  8993 PWs)   bands (ev):

   -18.2639 -18.0486 -10.5020 -10.3466  -8.3720  -7.6990  -7.6347  -7.3500

     occupation numbers 
     1.0000   1.0000   1.0000   1.0000   1.0000   1.0000   1.0000   1.0000

          k =-0.1333 0.4619 0.0000 (  9009 PWs)   bands (ev):

   -18.3312 -18.1900 -10.3710 -10.2142  -7.4773  -6.7870  -6.3727  -6.2557

     occupation numbers 
     1.0000   1.0000   1.0000   1.0000   1.0000   1.0000   1.0000   1.0000

          k =-0.3333 0.3464 0.0000 (  9009 PWs)   bands (ev):

   -17.7860 -17.5988 -11.0146 -10.8204  -8.3485  -8.2049  -7.9069  -7.1015

     occupation numbers 
     1.0000   1.0000   1.0000   1.0000   1.0000   1.0000   1.0000   1.0000

          k =-0.1333 0.5389 0.0000 (  9016 PWs)   bands (ev):

   -18.2319 -18.1282 -10.3197 -10.1550  -7.0197  -6.5733  -6.4010  -6.2998

     occupation numbers 
     1.0000   1.0000   1.0000   1.0000   1.0000   1.0000   1.0000   1.0000

          k =-0.4000 0.3849 0.0000 (  9016 PWs)   bands (ev):

   -17.4805 -17.3136 -11.3550 -11.1289  -8.6185  -8.5010  -7.7111  -6.9400

     occupation numbers 
     1.0000   1.0000   1.0000   1.0000   1.0000   1.0000   1.0000   1.0000

          k =-0.2000 0.3464 0.0000 (  8984 PWs)   bands (ev):

   -18.4560 -18.2505 -10.2832 -10.1396  -8.2751  -7.3612  -7.0723  -6.9396

     occupation numbers 
     1.0000   1.0000   1.0000   1.0000   1.0000   1.0000   1.0000   1.0000

          k =-0.2000 0.4234 0.0000 (  9013 PWs)   bands (ev):

   -18.1967 -18.0356 -10.4365 -10.2802  -7.7223  -7.2256  -7.1348  -6.8655

     occupation numbers 
     1.0000   1.0000   1.0000   1.0000   1.0000   1.0000   1.0000   1.0000

          k =-0.2667 0.3849 0.0000 (  9013 PWs)   bands (ev):

   -18.0075 -17.8303 -10.6438 -10.4744  -8.0213  -7.8258  -7.7314  -7.0157

     occupation numbers 
     1.0000   1.0000   1.0000   1.0000   1.0000   1.0000   1.0000   1.0000

          k =-0.2000 0.5004 0.0000 (  9020 PWs)   bands (ev):

   -18.0677 -17.9498 -10.3402 -10.1749  -7.4142  -7.2810  -7.1097  -6.5631

     occupation numbers 
     1.0000   1.0000   1.0000   1.0000   1.0000   1.0000   1.0000   1.0000

          k =-0.3333 0.4234 0.0000 (  9020 PWs)   bands (ev):

   -17.6580 -17.5055 -10.9023 -10.6961  -8.5169  -8.3850  -7.5469  -6.8116

     occupation numbers 
     1.0000   1.0000   1.0000   1.0000   1.0000   1.0000   1.0000   1.0000

          k =-0.4000 0.4619 0.0000 (  9072 PWs)   bands (ev):

   -17.5230 -17.3806 -11.0005 -10.7749  -8.7238  -8.5963  -7.4432  -6.7357

     occupation numbers 
     1.0000   1.0000   1.0000   1.0000   1.0000   1.0000   1.0000   1.0000

          k =-0.2667 0.4619 0.0000 (  9020 PWs)   bands (ev):

   -17.8677 -17.7323 -10.5122 -10.3326  -8.1372  -7.9950  -7.3521  -6.6781

     occupation numbers 
     1.0000   1.0000   1.0000   1.0000   1.0000   1.0000   1.0000   1.0000

          k =-0.2667 0.5389 0.0000 (  9046 PWs)   bands (ev):

   -17.8847 -17.7816 -10.0599  -9.8808  -8.3387  -8.1938  -6.9592  -6.4407

     occupation numbers 
     1.0000   1.0000   1.0000   1.0000   1.0000   1.0000   1.0000   1.0000

          k =-0.3333 0.5004 0.0000 (  9046 PWs)   bands (ev):

   -17.6742 -17.5543 -10.4643 -10.2537  -8.7191  -8.5784  -7.1802  -6.5563

     occupation numbers 
     1.0000   1.0000   1.0000   1.0000   1.0000   1.0000   1.0000   1.0000

     highest occupied level (ev):    -4.4834

!    total energy              =     -50.57235320 Ry
     estimated scf accuracy    <          2.6E-10 Ry

     The total energy is the sum of the following terms:
     one-electron contribution =   -1032.50232571 Ry
     hartree contribution      =     520.34687480 Ry
     xc contribution           =     -17.97123011 Ry
     ewald contribution        =     479.57170135 Ry
     DFT-D3 Dispersion         =      -0.01737353 Ry

     convergence has been achieved in  19 iterations

     negative rho (up, down):  4.889E-05 0.000E+00

     Forces acting on atoms (cartesian axes, Ry/au):

     atom    1 type  1   force =    -2.23019010   -3.86280257   -0.00070349
     atom    2 type  1   force =    -2.22978490   -3.86210074    0.00131522
     atom    3 type  2   force =     2.22950623    3.86161807   -0.00475973
     atom    4 type  2   force =     2.23046877    3.86328524    0.00414800
     The non-local contrib.  to forces
     atom    1 type  1   force =    -1.27559757   -2.20939980    0.00224860
     atom    2 type  1   force =    -1.27667255   -2.21126173    0.00021902
     atom    3 type  2   force =     1.33850057    2.31835099   -0.01074380
     atom    4 type  2   force =     1.34258901    2.32543239    0.01242879
     The ionic contribution  to forces
     atom    1 type  1   force =    -4.46307406   -7.73027102  -11.96082276
     atom    2 type  1   force =    -4.46251640   -7.72930511   11.97201315
     atom    3 type  2   force =     4.45954220    7.72415365  -19.94589499
     atom    4 type  2   force =     4.46604826    7.73542248   19.93470460
     The local contribution  to forces
     atom    1 type  1   force =     3.42821327    5.93783955   11.95728251
     atom    2 type  1   force =     3.42921815    5.93958006  -11.97059720
     atom    3 type  2   force =    -3.54000992   -6.13147705   19.95101965
     atom    4 type  2   force =    -3.54957183   -6.14803875  -19.94179592
     The core correction contribution to forces
     atom    1 type  1   force =     0.07884963    0.13657156   -0.00005853
     atom    2 type  1   force =     0.07887427    0.13661424    0.00000698
     atom    3 type  2   force =    -0.02718101   -0.04707890    0.00012113
     atom    4 type  2   force =    -0.02721050   -0.04712997   -0.00013166
     The Hubbard contrib.    to forces
     atom    1 type  1   force =     0.00000000    0.00000000    0.00000000
     atom    2 type  1   force =     0.00000000    0.00000000    0.00000000
     atom    3 type  2   force =     0.00000000    0.00000000    0.00000000
     atom    4 type  2   force =     0.00000000    0.00000000    0.00000000
     The SCF correction term to forces
     atom    1 type  1   force =    -0.00000170   -0.00000295   -0.00000097
     atom    2 type  1   force =    -0.00000180   -0.00000312    0.00000121
     atom    3 type  2   force =    -0.00000280   -0.00000485   -0.00000175
     atom    4 type  2   force =    -0.00000286   -0.00000495    0.00000222

     DFT-D3 dispersion contribution to forces:
     atom    1 type  1   force =     0.00141842    0.00245678    0.00064773
     atom    2 type  1   force =     0.00131151    0.00227161   -0.00032786
     atom    3 type  2   force =    -0.00134471   -0.00232910    0.00074009
     atom    4 type  2   force =    -0.00138522   -0.00239928   -0.00105997

     Total force =     8.919952     Total SCF correction =     0.000010

     DFT-D3 dispersion Force =     0.005660


     Computing stress (Cartesian axis) and pressure


     negative rho (up, down):  4.889E-05 0.000E+00
          total   stress  (Ry/bohr**3)                   (kbar)     P=      582.51
   0.00334818   0.00447073   0.00000332          492.53      657.67        0.49
   0.00447073   0.00851053   0.00000574          657.67     1251.94        0.84
   0.00000332   0.00000574   0.00002066            0.49        0.84        3.04

     kinetic stress (kbar)   3128.90   -218.52      0.75
                             -218.52   2876.58      1.31
                                0.75      1.31   3167.27

     local   stress (kbar)-133913.20  -1447.95     -5.18
                            -1447.95-135585.15     -8.97
                               -5.18     -8.97 132363.69

     nonloc. stress (kbar)   1030.09     84.67      0.01
                               84.67   1127.85      0.02
                                0.01      0.02    977.68

     hartree stress (kbar)  65914.76    160.34      2.37
                              160.34  66099.90      4.11
                                2.37      4.11 -65079.99

     exc-cor stress (kbar)   -361.87      3.09      0.01
                                3.09   -358.30      0.01
                                0.01      0.01   -368.90

     corecor stress (kbar)   -320.38     -8.75     -0.00
                               -8.75   -330.48     -0.00
                               -0.00     -0.00   -314.81

     ewald   stress (kbar)  65010.95   2085.85      2.58
                             2085.85  67419.48      4.46
                                2.58      4.46 -70740.87

     hubbard stress (kbar)      0.00      0.00      0.00
                                0.00      0.00      0.00
                                0.00      0.00      0.00

     DFT-D   stress (kbar)      3.28     -1.05     -0.05
                               -1.05      2.06     -0.09
                               -0.05     -0.09     -1.02

     XDM     stress (kbar)      0.00      0.00      0.00
                                0.00      0.00      0.00
                                0.00      0.00      0.00

     dft-nl  stress (kbar)      0.00      0.00      0.00
                                0.00      0.00      0.00
                                0.00      0.00      0.00

     TS-vdW  stress (kbar)      0.00      0.00      0.00
                                0.00      0.00      0.00
                                0.00      0.00      0.00

     MDB     stress (kbar)      0.00      0.00      0.00
                                0.00      0.00      0.00
                                0.00      0.00      0.00

     3D-RISM stress (kbar)      0.00      0.00      0.00
                                0.00      0.00      0.00
                                0.00      0.00      0.00


     BFGS Geometry Optimization
     Energy error            =      2.2E+02 Ry
     Gradient error          =      3.9E+00 Ry/Bohr
     Cell gradient error     =      1.3E+03 kbar

     number of scf cycles    =   1
     number of bfgs steps    =   0

     enthalpy           new  =     -50.5723532036 Ry

     new trust radius        =       0.5000000000 bohr
     new conv_thr            =       0.0000000008 Ry

     new unit-cell volume =   1181.73326 a.u.^3 (   175.11480 Ang^3 )
     density =      0.47067 g/cm^3

CELL_PARAMETERS (angstrom)
   2.577899884   0.031994304   0.000023733
  -1.261242062   2.248523937   0.000023733
   0.000278785   0.000482870  30.001736889

ATOMIC_POSITIONS (crystal)
B               -0.1035872172       -0.1035872174        0.4499986092
B                0.2297649367        0.2297649365        0.5500026003
N                0.4368887863        0.4368887865        0.4499905896
N                0.7702668275        0.7702668277        0.5500082009



     Writing config-only to output data dir ./out/BN_rel.save/ :
     XML data file
     NEW-OLD atomic charge density approx. for the potential
     New effective cutoffs (rho, wfc):  479.40   59.97

     negative rho (up, down):  8.575E-05 0.000E+00

     total cpu time spent up to now is       19.8 secs

     per-process dynamical memory:   496.2 Mb

     Self-consistent Calculation
[tb_dev] Currently allocated     0.00E+00 Mbytes, locked:    0 /   0
[tb_pin] Currently allocated     0.00E+00 Mbytes, locked:    0 /   0

     iteration #  1     ecut=    60.00 Ry     beta= 0.40
     Davidson diagonalization with overlap

---- Real-time Memory Report at c_bands before calling an iterative solver
           939 MiB given to the printing process from OS
           484 MiB allocation reported by mallinfo(arena+hblkhd)
        825040 MiB available memory on the node where the printing process lives
     GPU memory used/free/total (MiB): 2117 / 94650 / 96768
------------------
     c_bands:  3 eigenvalues not converged
     c_bands:  4 eigenvalues not converged
     c_bands:  4 eigenvalues not converged
     c_bands:  4 eigenvalues not converged
     c_bands:  4 eigenvalues not converged
     c_bands:  4 eigenvalues not converged
     c_bands:  4 eigenvalues not converged
     c_bands:  4 eigenvalues not converged
     c_bands:  4 eigenvalues not converged
     c_bands:  4 eigenvalues not converged
     c_bands:  4 eigenvalues not converged
     c_bands:  4 eigenvalues not converged
     c_bands:  4 eigenvalues not converged
     c_bands:  4 eigenvalues not converged
     c_bands:  4 eigenvalues not converged
     c_bands:  4 eigenvalues not converged
     c_bands:  2 eigenvalues not converged
     c_bands:  4 eigenvalues not converged
     c_bands:  4 eigenvalues not converged
     c_bands:  4 eigenvalues not converged
     c_bands:  2 eigenvalues not converged
     c_bands:  4 eigenvalues not converged
     c_bands:  2 eigenvalues not converged
     c_bands:  3 eigenvalues not converged
     c_bands:  4 eigenvalues not converged
     c_bands:  4 eigenvalues not converged
     c_bands:  4 eigenvalues not converged
     c_bands:  4 eigenvalues not converged
     c_bands:  3 eigenvalues not converged
     c_bands:  4 eigenvalues not converged
     c_bands:  4 eigenvalues not converged
     c_bands:  4 eigenvalues not converged
     c_bands:  4 eigenvalues not converged
     c_bands:  3 eigenvalues not converged
     c_bands:  4 eigenvalues not converged
     c_bands:  4 eigenvalues not converged
     c_bands:  2 eigenvalues not converged
     c_bands:  2 eigenvalues not converged
     ethr =  1.00E-06,  avg # of iterations = 19.6

     negative rho (up, down):  5.047E-05 0.000E+00

     total cpu time spent up to now is       22.8 secs

     total energy              =     -53.00179713 Ry
     estimated scf accuracy    <       1.26679201 Ry
[tb_dev] Currently allocated     3.05E-05 Mbytes, locked:    0 /   2
[tb_pin] Currently allocated     0.00E+00 Mbytes, locked:    0 /   0

     iteration #  2     ecut=    60.00 Ry     beta= 0.40
     Davidson diagonalization with overlap

---- Real-time Memory Report at c_bands before calling an iterative solver
           943 MiB given to the printing process from OS
           484 MiB allocation reported by mallinfo(arena+hblkhd)
        824979 MiB available memory on the node where the printing process lives
     GPU memory used/free/total (MiB): 2117 / 94650 / 96768
------------------
     ethr =  7.92E-03,  avg # of iterations =  1.3

     negative rho (up, down):  4.700E-05 0.000E+00

     total cpu time spent up to now is       23.2 secs

     total energy              =     -52.91435256 Ry
     estimated scf accuracy    <       0.23520864 Ry
[tb_dev] Currently allocated     3.05E-05 Mbytes, locked:    0 /   2
[tb_pin] Currently allocated     0.00E+00 Mbytes, locked:    0 /   0

     iteration #  3     ecut=    60.00 Ry     beta= 0.40
     Davidson diagonalization with overlap

---- Real-time Memory Report at c_bands before calling an iterative solver
           943 MiB given to the printing process from OS
           484 MiB allocation reported by mallinfo(arena+hblkhd)
        824971 MiB available memory on the node where the printing process lives
     GPU memory used/free/total (MiB): 2117 / 94650 / 96768
------------------
     ethr =  1.47E-03,  avg # of iterations =  2.0

     negative rho (up, down):  3.735E-05 0.000E+00

     total cpu time spent up to now is       23.8 secs

     total energy              =     -52.96628093 Ry
     estimated scf accuracy    <       0.00251031 Ry
[tb_dev] Currently allocated     3.05E-05 Mbytes, locked:    0 /   2
[tb_pin] Currently allocated     0.00E+00 Mbytes, locked:    0 /   0

     iteration #  4     ecut=    60.00 Ry     beta= 0.40
     Davidson diagonalization with overlap

---- Real-time Memory Report at c_bands before calling an iterative solver
           943 MiB given to the printing process from OS
           484 MiB allocation reported by mallinfo(arena+hblkhd)
        824969 MiB available memory on the node where the printing process lives
     GPU memory used/free/total (MiB): 2117 / 94650 / 96768
------------------
     ethr =  1.57E-05,  avg # of iterations =  5.5

     negative rho (up, down):  3.367E-05 0.000E+00

     total cpu time spent up to now is       24.8 secs

     total energy              =     -52.97126380 Ry
     estimated scf accuracy    <       0.00141930 Ry
[tb_dev] Currently allocated     3.05E-05 Mbytes, locked:    0 /   2
[tb_pin] Currently allocated     0.00E+00 Mbytes, locked:    0 /   0

     iteration #  5     ecut=    60.00 Ry     beta= 0.40
     Davidson diagonalization with overlap

---- Real-time Memory Report at c_bands before calling an iterative solver
           943 MiB given to the printing process from OS
           484 MiB allocation reported by mallinfo(arena+hblkhd)
        824953 MiB available memory on the node where the printing process lives
     GPU memory used/free/total (MiB): 2117 / 94650 / 96768
------------------
     ethr =  8.87E-06,  avg # of iterations =  2.1

     negative rho (up, down):  2.888E-05 0.000E+00

     total cpu time spent up to now is       25.3 secs

     total energy              =     -52.97150413 Ry
     estimated scf accuracy    <       0.00029976 Ry
[tb_dev] Currently allocated     3.05E-05 Mbytes, locked:    0 /   2
[tb_pin] Currently allocated     0.00E+00 Mbytes, locked:    0 /   0

     iteration #  6     ecut=    60.00 Ry     beta= 0.40
     Davidson diagonalization with overlap

---- Real-time Memory Report at c_bands before calling an iterative solver
           946 MiB given to the printing process from OS
           484 MiB allocation reported by mallinfo(arena+hblkhd)
        824953 MiB available memory on the node where the printing process lives
     GPU memory used/free/total (MiB): 2117 / 94650 / 96768
------------------
     ethr =  1.87E-06,  avg # of iterations =  2.0

     negative rho (up, down):  2.756E-05 0.000E+00

     total cpu time spent up to now is       25.9 secs

     total energy              =     -52.97156560 Ry
     estimated scf accuracy    <       0.00002721 Ry
[tb_dev] Currently allocated     3.05E-05 Mbytes, locked:    0 /   2
[tb_pin] Currently allocated     0.00E+00 Mbytes, locked:    0 /   0

     iteration #  7     ecut=    60.00 Ry     beta= 0.40
     Davidson diagonalization with overlap

---- Real-time Memory Report at c_bands before calling an iterative solver
           946 MiB given to the printing process from OS
           484 MiB allocation reported by mallinfo(arena+hblkhd)
        824944 MiB available memory on the node where the printing process lives
     GPU memory used/free/total (MiB): 2117 / 94650 / 96768
------------------
     ethr =  1.70E-07,  avg # of iterations =  2.6

     negative rho (up, down):  2.708E-05 0.000E+00

     total cpu time spent up to now is       26.5 secs

     total energy              =     -52.97156895 Ry
     estimated scf accuracy    <       0.00000290 Ry
[tb_dev] Currently allocated     3.05E-05 Mbytes, locked:    0 /   2
[tb_pin] Currently allocated     0.00E+00 Mbytes, locked:    0 /   0

     iteration #  8     ecut=    60.00 Ry     beta= 0.40
     Davidson diagonalization with overlap

---- Real-time Memory Report at c_bands before calling an iterative solver
           946 MiB given to the printing process from OS
           484 MiB allocation reported by mallinfo(arena+hblkhd)
        824942 MiB available memory on the node where the printing process lives
     GPU memory used/free/total (MiB): 2117 / 94650 / 96768
------------------
     ethr =  1.82E-08,  avg # of iterations =  3.8

     negative rho (up, down):  2.689E-05 0.000E+00

     total cpu time spent up to now is       27.2 secs

     total energy              =     -52.97157003 Ry
     estimated scf accuracy    <       0.00000080 Ry
[tb_dev] Currently allocated     3.05E-05 Mbytes, locked:    0 /   2
[tb_pin] Currently allocated     0.00E+00 Mbytes, locked:    0 /   0

     iteration #  9     ecut=    60.00 Ry     beta= 0.40
     Davidson diagonalization with overlap

---- Real-time Memory Report at c_bands before calling an iterative solver
           946 MiB given to the printing process from OS
           484 MiB allocation reported by mallinfo(arena+hblkhd)
        824935 MiB available memory on the node where the printing process lives
     GPU memory used/free/total (MiB): 2117 / 94650 / 96768
------------------
     ethr =  4.97E-09,  avg # of iterations =  2.2

     negative rho (up, down):  2.685E-05 0.000E+00

     total cpu time spent up to now is       27.8 secs

     total energy              =     -52.97157008 Ry
     estimated scf accuracy    <       0.00000017 Ry
[tb_dev] Currently allocated     3.05E-05 Mbytes, locked:    0 /   2
[tb_pin] Currently allocated     0.00E+00 Mbytes, locked:    0 /   0

     iteration # 10     ecut=    60.00 Ry     beta= 0.40
     Davidson diagonalization with overlap

---- Real-time Memory Report at c_bands before calling an iterative solver
           948 MiB given to the printing process from OS
           484 MiB allocation reported by mallinfo(arena+hblkhd)
        824933 MiB available memory on the node where the printing process lives
     GPU memory used/free/total (MiB): 2117 / 94650 / 96768
------------------
     ethr =  1.09E-09,  avg # of iterations =  2.9

     negative rho (up, down):  2.685E-05 0.000E+00

     total cpu time spent up to now is       28.4 secs

     total energy              =     -52.97157012 Ry
     estimated scf accuracy    <       0.00000002 Ry
[tb_dev] Currently allocated     3.05E-05 Mbytes, locked:    0 /   2
[tb_pin] Currently allocated     0.00E+00 Mbytes, locked:    0 /   0

     iteration # 11     ecut=    60.00 Ry     beta= 0.40
     Davidson diagonalization with overlap

---- Real-time Memory Report at c_bands before calling an iterative solver
           948 MiB given to the printing process from OS
           484 MiB allocation reported by mallinfo(arena+hblkhd)
        824932 MiB available memory on the node where the printing process lives
     GPU memory used/free/total (MiB): 2117 / 94650 / 96768
------------------
     ethr =  1.48E-10,  avg # of iterations =  4.5

     negative rho (up, down):  2.686E-05 0.000E+00

     total cpu time spent up to now is       29.3 secs

     total energy              =     -52.97157013 Ry
     estimated scf accuracy    <       0.00000002 Ry
[tb_dev] Currently allocated     3.05E-05 Mbytes, locked:    0 /   2
[tb_pin] Currently allocated     0.00E+00 Mbytes, locked:    0 /   0

     iteration # 12     ecut=    60.00 Ry     beta= 0.40
     Davidson diagonalization with overlap

---- Real-time Memory Report at c_bands before calling an iterative solver
           948 MiB given to the printing process from OS
           484 MiB allocation reported by mallinfo(arena+hblkhd)
        824932 MiB available memory on the node where the printing process lives
     GPU memory used/free/total (MiB): 2117 / 94650 / 96768
------------------
     ethr =  9.58E-11,  avg # of iterations =  1.9

     negative rho (up, down):  2.687E-05 0.000E+00

     total cpu time spent up to now is       29.8 secs

     total energy              =     -52.97157013 Ry
     estimated scf accuracy    <          2.9E-09 Ry
[tb_dev] Currently allocated     3.05E-05 Mbytes, locked:    0 /   2
[tb_pin] Currently allocated     0.00E+00 Mbytes, locked:    0 /   0

     iteration # 13     ecut=    60.00 Ry     beta= 0.40
     Davidson diagonalization with overlap

---- Real-time Memory Report at c_bands before calling an iterative solver
           948 MiB given to the printing process from OS
           484 MiB allocation reported by mallinfo(arena+hblkhd)
        824930 MiB available memory on the node where the printing process lives
     GPU memory used/free/total (MiB): 2117 / 94650 / 96768
------------------
     ethr =  1.84E-11,  avg # of iterations =  2.6

     negative rho (up, down):  2.688E-05 0.000E+00

     total cpu time spent up to now is       30.4 secs

     End of self-consistent calculation

          k = 0.0000 0.0000 0.0000 (  8821 PWs)   bands (ev):

   -20.8771 -20.5539 -10.1054 -10.0576  -9.5477  -7.9157  -2.3082  -2.2294

     occupation numbers 
     1.0000   1.0000   1.0000   1.0000   1.0000   1.0000   1.0000   1.0000

          k =-0.0009 0.0752-0.0000 (  8883 PWs)   bands (ev):

   -20.8137 -20.4946 -10.1797 -10.1277  -9.4370  -7.8119  -2.4205  -2.3380

     occupation numbers 
     1.0000   1.0000   1.0000   1.0000   1.0000   1.0000   1.0000   1.0000

          k =-0.0019 0.1504-0.0000 (  8887 PWs)   bands (ev):

   -20.6274 -20.3205 -10.4015 -10.3376  -9.1081  -7.5040  -2.7053  -2.6171

     occupation numbers 
     1.0000   1.0000   1.0000   1.0000   1.0000   1.0000   1.0000   1.0000

          k =-0.0028 0.2256-0.0000 (  8918 PWs)   bands (ev):

   -20.3314 -20.0454 -10.7650 -10.6826  -8.5682  -7.0031  -3.0577  -2.9677

     occupation numbers 
     1.0000   1.0000   1.0000   1.0000   1.0000   1.0000   1.0000   1.0000

          k =-0.0037 0.3008-0.0000 (  8958 PWs)   bands (ev):

   -19.9511 -19.6959 -11.2453 -11.1396  -7.8300  -6.3317  -3.3889  -3.3008

     occupation numbers 
     1.0000   1.0000   1.0000   1.0000   1.0000   1.0000   1.0000   1.0000

          k =-0.0047 0.3760-0.0000 (  8954 PWs)   bands (ev):

   -19.5316 -19.3181 -11.7799 -11.6492  -6.9211  -5.5388  -3.6492  -3.5636

     occupation numbers 
     1.0000   1.0000   1.0000   1.0000   1.0000   1.0000   1.0000   1.0000

          k =-0.0056 0.4512-0.0000 (  8964 PWs)   bands (ev):

   -19.1464 -18.9852 -12.2620 -12.1096  -5.9074  -4.7536  -3.8211  -3.7370

     occupation numbers 
     1.0000   1.0000   1.0000   1.0000   1.0000   1.0000   1.0000   1.0000

          k =-0.0065 0.5264-0.0000 (  8990 PWs)   bands (ev):

   -18.9008 -18.7890 -12.5562 -12.3911  -4.9984  -4.3128  -3.9046  -3.8214

     occupation numbers 
     1.0000   1.0000   1.0000   1.0000   1.0000   1.0000   1.0000   1.0000

          k = 0.0647 0.1120-0.0000 (  8878 PWs)   bands (ev):

   -20.7124 -20.4032 -10.3343 -10.2713  -9.1984  -7.5830  -2.2807  -2.2087

     occupation numbers 
     1.0000   1.0000   1.0000   1.0000   1.0000   1.0000   1.0000   1.0000

          k = 0.0637 0.1872-0.0000 (  8901 PWs)   bands (ev):

   -20.4922 -20.2010 -10.6057 -10.5262  -8.7462  -7.1565  -2.4506  -2.3801

     occupation numbers 
     1.0000   1.0000   1.0000   1.0000   1.0000   1.0000   1.0000   1.0000

          k = 0.0628 0.2624-0.0000 (  8931 PWs)   bands (ev):

   -20.1694 -19.9047 -10.9830 -10.8829  -8.0885  -6.5484  -2.8779  -2.7946

     occupation numbers 
     1.0000   1.0000   1.0000   1.0000   1.0000   1.0000   1.0000   1.0000

          k = 0.0619 0.3376-0.0000 (  8962 PWs)   bands (ev):

   -19.7745 -19.5455 -11.4440 -11.3209  -7.2446  -5.7946  -3.4294  -3.3199

     occupation numbers 
     1.0000   1.0000   1.0000   1.0000   1.0000   1.0000   1.0000   1.0000

          k = 0.0609 0.4128-0.0000 (  8970 PWs)   bands (ev):

   -19.3590 -19.1757 -11.9326 -11.7874  -6.2602  -4.9858  -3.9522  -3.8188

     occupation numbers 
     1.0000   1.0000   1.0000   1.0000   1.0000   1.0000   1.0000   1.0000

          k = 0.0600 0.4880-0.0000 (  8980 PWs)   bands (ev):

   -19.0055 -18.8736 -12.3450 -12.1837  -5.2677  -4.3753  -4.3470  -4.2014

     occupation numbers 
     1.0000   1.0000   1.0000   1.0000   1.0000   1.0000   1.0000   1.0000

          k = 0.0591 0.5632-0.0000 (  9002 PWs)   bands (ev):

   -18.8265 -18.7242 -12.5487 -12.3828  -4.7971  -4.5870  -4.4406  -4.2698

     occupation numbers 
     1.0000   1.0000   1.0000   1.0000   1.0000   1.0000   1.0000   1.0000

          k = 0.1293 0.2240-0.0000 (  8950 PWs)   bands (ev):

   -20.2439 -19.9761 -10.8812 -10.7833  -8.1767  -6.6230  -2.7799  -2.6818

     occupation numbers 
     1.0000   1.0000   1.0000   1.0000   1.0000   1.0000   1.0000   1.0000

          k = 0.1284 0.2992-0.0000 (  8986 PWs)   bands (ev):

   -19.9027 -19.6661 -11.2197 -11.1020  -7.4133  -5.9308  -3.5759  -3.4262

     occupation numbers 
     1.0000   1.0000   1.0000   1.0000   1.0000   1.0000   1.0000   1.0000

          k = 0.1274 0.3744-0.0000 (  8993 PWs)   bands (ev):

   -19.5035 -19.3065 -11.6099 -11.4724  -6.4895  -5.1470  -4.4780  -4.2917

     occupation numbers 
     1.0000   1.0000   1.0000   1.0000   1.0000   1.0000   1.0000   1.0000

          k = 0.1265 0.4496-0.0000 (  9009 PWs)   bands (ev):

   -19.1047 -18.9542 -12.0102 -11.8557  -5.4971  -5.2291  -5.0273  -4.4527

     occupation numbers 
     1.0000   1.0000   1.0000   1.0000   1.0000   1.0000   1.0000   1.0000

          k = 0.1256 0.5248-0.0000 (  9016 PWs)   bands (ev):

   -18.7968 -18.6883 -12.3257 -12.1626  -5.7370  -5.5321  -4.7472  -4.2040

     occupation numbers 
     1.0000   1.0000   1.0000   1.0000   1.0000   1.0000   1.0000   1.0000

          k = 0.1940 0.3360-0.0000 (  8984 PWs)   bands (ev):

   -19.5544 -19.3528 -11.4715 -11.3375  -6.5686  -5.2042  -4.7228  -4.5197

     occupation numbers 
     1.0000   1.0000   1.0000   1.0000   1.0000   1.0000   1.0000   1.0000

          k = 0.1930 0.4112-0.0000 (  9013 PWs)   bands (ev):

   -19.1640 -19.0031 -11.7406 -11.5927  -5.8408  -5.6254  -5.6081  -4.5078

     occupation numbers 
     1.0000   1.0000   1.0000   1.0000   1.0000   1.0000   1.0000   1.0000

          k = 0.1921 0.4864-0.0000 (  9020 PWs)   bands (ev):

   -18.7952 -18.6759 -12.0089 -11.8520  -6.7021  -6.4630  -4.7906  -4.1421

     occupation numbers 
     1.0000   1.0000   1.0000   1.0000   1.0000   1.0000   1.0000   1.0000

          k = 0.1912 0.5616-0.0000 (  9072 PWs)   bands (ev):

   -18.5444 -18.4443 -12.2047 -12.0481  -7.2378  -7.0026  -4.7402  -4.1425

     occupation numbers 
     1.0000   1.0000   1.0000   1.0000   1.0000   1.0000   1.0000   1.0000

          k = 0.2586 0.4480-0.0000 (  9020 PWs)   bands (ev):

   -18.7981 -18.6740 -11.8471 -11.6940  -7.0907  -6.8367  -4.8161  -4.1213

     occupation numbers 
     1.0000   1.0000   1.0000   1.0000   1.0000   1.0000   1.0000   1.0000

          k = 0.2577 0.5232-0.0000 (  9046 PWs)   bands (ev):

   -18.4729 -18.3733 -11.9410 -11.7893  -8.0371  -7.7747  -4.5795  -4.0648

     occupation numbers 
     1.0000   1.0000   1.0000   1.0000   1.0000   1.0000   1.0000   1.0000

          k = 0.3233 0.5599-0.0000 (  9048 PWs)   bands (ev):

   -18.1989 -18.0934 -11.8378 -11.6990  -9.0765  -8.8006  -4.9757  -4.1947

     occupation numbers 
     1.0000   1.0000   1.0000   1.0000   1.0000   1.0000   1.0000   1.0000

          k =-0.0665 0.0384-0.0000 (  8883 PWs)   bands (ev):

   -20.7891 -20.4681 -10.1575 -10.1089  -9.4574  -7.8356  -2.8145  -2.7148

     occupation numbers 
     1.0000   1.0000   1.0000   1.0000   1.0000   1.0000   1.0000   1.0000

          k =-0.1330 0.0768-0.0000 (  8887 PWs)   bands (ev):

   -20.5284 -20.2136 -10.3029 -10.2530  -9.1893  -7.6017  -4.0750  -3.9372

     occupation numbers 
     1.0000   1.0000   1.0000   1.0000   1.0000   1.0000   1.0000   1.0000

          k =-0.1996 0.1152-0.0000 (  8918 PWs)   bands (ev):

   -20.1059 -19.8016 -10.5106 -10.4600  -8.7614  -7.2366  -5.6865  -5.5137

     occupation numbers 
     1.0000   1.0000   1.0000   1.0000   1.0000   1.0000   1.0000   1.0000

          k =-0.2661 0.1536-0.0000 (  8958 PWs)   bands (ev):

   -19.5454 -19.2560 -10.7394 -10.6888  -8.2158  -7.3724  -7.1884  -6.7617

     occupation numbers 
     1.0000   1.0000   1.0000   1.0000   1.0000   1.0000   1.0000   1.0000

          k =-0.3326 0.1920-0.0000 (  8954 PWs)   bands (ev):

   -18.8959 -18.6258 -10.9481 -10.8987  -8.9552  -8.7290  -7.6098  -6.2870

     occupation numbers 
     1.0000   1.0000   1.0000   1.0000   1.0000   1.0000   1.0000   1.0000

          k =-0.3991 0.2304-0.0000 (  8964 PWs)   bands (ev):

   -18.2594 -18.0114 -11.1033 -11.0538 -10.2364 -10.0008  -7.0725  -5.8681

     occupation numbers 
     1.0000   1.0000   1.0000   1.0000   1.0000   1.0000   1.0000   1.0000

          k =-0.4657 0.2689-0.0000 (  8990 PWs)   bands (ev):

   -17.8290 -17.5988 -11.2089 -11.0996 -10.9646 -10.8001  -6.7423  -5.6199

     occupation numbers 
     1.0000   1.0000   1.0000   1.0000   1.0000   1.0000   1.0000   1.0000

          k =-0.0675 0.1136-0.0000 (  8878 PWs)   bands (ev):

   -20.6400 -20.3251 -10.2887 -10.2354  -9.2569  -7.6537  -3.3282  -3.2126

     occupation numbers 
     1.0000   1.0000   1.0000   1.0000   1.0000   1.0000   1.0000   1.0000

          k =-0.0684 0.1888-0.0000 (  8901 PWs)   bands (ev):

[...]

          k =-0.3414 0.1971-0.0000 (  8990 PWs)   bands (ev):

   -19.4770 -19.2413 -11.3709 -11.2192  -9.3471  -9.0114  -8.1818  -7.0875

     occupation numbers 
     1.0000   1.0000   1.0000   1.0000   1.0000   1.0000   1.0000   1.0000

          k =-0.0406 0.0986-0.0025 (  8878 PWs)   bands (ev):

   -19.9431 -19.6855 -11.3472 -11.1973  -8.7046  -7.4376  -6.7927  -6.5879

     occupation numbers 
     1.0000   1.0000   1.0000   1.0000   1.0000   1.0000   1.0000   1.0000

          k =-0.0325 0.1690-0.0051 (  8901 PWs)   bands (ev):

   -19.8317 -19.5854 -11.5390 -11.3921  -8.4038  -7.1622  -6.7833  -6.5675

     occupation numbers 
     1.0000   1.0000   1.0000   1.0000   1.0000   1.0000   1.0000   1.0000

          k =-0.0894 0.1267-0.0025 (  8901 PWs)   bands (ev):

   -19.8659 -19.6121 -11.3632 -11.2133  -8.6103  -7.3824  -7.2852  -7.0508

     occupation numbers 
     1.0000   1.0000   1.0000   1.0000   1.0000   1.0000   1.0000   1.0000

          k =-0.0243 0.2394-0.0076 (  8931 PWs)   bands (ev):

   -19.6757 -19.4472 -11.8140 -11.6707  -7.9282  -6.7348  -6.6413  -6.4179

     occupation numbers 
     1.0000   1.0000   1.0000   1.0000   1.0000   1.0000   1.0000   1.0000

          k =-0.1382 0.1549-0.0025 (  8931 PWs)   bands (ev):

   -19.7636 -19.5148 -11.3832 -11.2331  -8.4874  -7.8735  -7.6201  -7.2615

     occupation numbers 
     1.0000   1.0000   1.0000   1.0000   1.0000   1.0000   1.0000   1.0000

          k =-0.0162 0.3099-0.0101 (  8962 PWs)   bands (ev):

   -19.4966 -19.2915 -12.1225 -11.9826  -7.2917  -6.3833  -6.1900  -6.1027

     occupation numbers 
     1.0000   1.0000   1.0000   1.0000   1.0000   1.0000   1.0000   1.0000

          k =-0.1869 0.1831-0.0025 (  8962 PWs)   bands (ev):

   -19.6517 -19.4087 -11.4032 -11.2529  -8.4659  -8.3122  -8.1389  -7.1702

     occupation numbers 
     1.0000   1.0000   1.0000   1.0000   1.0000   1.0000   1.0000   1.0000

          k =-0.0080 0.3803-0.0127 (  8970 PWs)   bands (ev):

   -19.3233 -19.1448 -12.4122 -12.2751  -6.5214  -5.9836  -5.7594  -5.4761

     occupation numbers 
     1.0000   1.0000   1.0000   1.0000   1.0000   1.0000   1.0000   1.0000

          k =-0.2357 0.2112-0.0025 (  8970 PWs)   bands (ev):

   -19.5498 -19.3123 -11.4197 -11.2692  -8.8911  -8.5719  -8.2077  -7.0837

     occupation numbers 
     1.0000   1.0000   1.0000   1.0000   1.0000   1.0000   1.0000   1.0000

          k = 0.0001 0.4507-0.0152 (  8980 PWs)   bands (ev):

   -19.1894 -19.0362 -12.6350 -12.5000  -5.6824  -5.4821  -5.2743  -4.8569

     occupation numbers 
     1.0000   1.0000   1.0000   1.0000   1.0000   1.0000   1.0000   1.0000

          k =-0.2845 0.2394-0.0025 (  8980 PWs)   bands (ev):

   -19.4781 -19.2445 -11.4303 -11.2796  -9.1832  -8.8516  -8.1211  -7.0230

     occupation numbers 
     1.0000   1.0000   1.0000   1.0000   1.0000   1.0000   1.0000   1.0000

          k =-0.3332 0.2675-0.0025 (  9002 PWs)   bands (ev):

   -19.4523 -19.2201 -11.4340 -11.2833  -9.2851  -8.9492  -8.0893  -7.0012

     occupation numbers 
     1.0000   1.0000   1.0000   1.0000   1.0000   1.0000   1.0000   1.0000

          k =-0.0812 0.1972-0.0051 (  8950 PWs)   bands (ev):

   -19.7449 -19.5031 -11.5578 -11.4107  -8.2937  -7.3332  -7.1321  -7.0254

     occupation numbers 
     1.0000   1.0000   1.0000   1.0000   1.0000   1.0000   1.0000   1.0000

          k =-0.0731 0.2676-0.0076 (  8986 PWs)   bands (ev):

   -19.5876 -19.3641 -11.8329 -11.6894  -7.8085  -7.2052  -6.9583  -6.6237

     occupation numbers 
     1.0000   1.0000   1.0000   1.0000   1.0000   1.0000   1.0000   1.0000

          k =-0.1300 0.2253-0.0051 (  8986 PWs)   bands (ev):

   -19.6413 -19.4050 -11.5772 -11.4299  -8.1701  -7.8934  -7.6313  -6.9749

     occupation numbers 
     1.0000   1.0000   1.0000   1.0000   1.0000   1.0000   1.0000   1.0000

          k =-0.0649 0.3380-0.0101 (  8993 PWs)   bands (ev):

   -19.4168 -19.2167 -12.1379 -11.9977  -7.1737  -6.9097  -6.6592  -6.0544

     occupation numbers 
     1.0000   1.0000   1.0000   1.0000   1.0000   1.0000   1.0000   1.0000

          k =-0.1788 0.2535-0.0051 (  8993 PWs)   bands (ev):

   -19.5380 -19.3073 -11.5930 -11.4455  -8.4235  -8.1177  -8.0076  -6.8837

     occupation numbers 
     1.0000   1.0000   1.0000   1.0000   1.0000   1.0000   1.0000   1.0000

          k =-0.0568 0.4084-0.0127 (  9009 PWs)   bands (ev):

   -19.2612 -19.0872 -12.4212 -12.2838  -6.4975  -6.3717  -6.2078  -5.4036

     occupation numbers 
     1.0000   1.0000   1.0000   1.0000   1.0000   1.0000   1.0000   1.0000

          k =-0.2275 0.2816-0.0051 (  9009 PWs)   bands (ev):

   -19.4541 -19.2281 -11.6029 -11.4550  -8.7964  -8.4734  -7.9065  -6.8092

     occupation numbers 
     1.0000   1.0000   1.0000   1.0000   1.0000   1.0000   1.0000   1.0000

          k =-0.0486 0.4789-0.0152 (  9016 PWs)   bands (ev):

   -19.1519 -19.0017 -12.6358 -12.5004  -5.8909  -5.6395  -5.5572  -4.8103

     occupation numbers 
     1.0000   1.0000   1.0000   1.0000   1.0000   1.0000   1.0000   1.0000

          k =-0.2763 0.3098-0.0051 (  9016 PWs)   bands (ev):

   -19.4070 -19.1837 -11.6074 -11.4591  -8.9977  -8.6655  -7.8458  -6.7676

     occupation numbers 
     1.0000   1.0000   1.0000   1.0000   1.0000   1.0000   1.0000   1.0000

          k =-0.1219 0.2957-0.0076 (  8984 PWs)   bands (ev):

   -19.4921 -19.2741 -11.8482 -11.7044  -7.7792  -7.6409  -7.4630  -6.5356

     occupation numbers 
     1.0000   1.0000   1.0000   1.0000   1.0000   1.0000   1.0000   1.0000

          k =-0.1137 0.3662-0.0101 (  9013 PWs)   bands (ev):

   -19.3384 -19.1432 -12.1465 -12.0058  -7.4137  -7.1225  -7.0219  -5.9713

     occupation numbers 
     1.0000   1.0000   1.0000   1.0000   1.0000   1.0000   1.0000   1.0000

          k =-0.1706 0.3239-0.0076 (  9013 PWs)   bands (ev):

   -19.4060 -19.1930 -11.8571 -11.7127  -8.1987  -7.8884  -7.5393  -6.4532

     occupation numbers 
     1.0000   1.0000   1.0000   1.0000   1.0000   1.0000   1.0000   1.0000

          k =-0.1056 0.4366-0.0127 (  9020 PWs)   bands (ev):

   -19.2063 -19.0362 -12.4223 -12.2843  -6.8848  -6.5958  -6.2793  -5.3367

     occupation numbers 
     1.0000   1.0000   1.0000   1.0000   1.0000   1.0000   1.0000   1.0000

          k =-0.2194 0.3521-0.0076 (  9020 PWs)   bands (ev):

   -19.3458 -19.1364 -11.8601 -11.7152  -8.4893  -8.1656  -7.4556  -6.3955

     occupation numbers 
     1.0000   1.0000   1.0000   1.0000   1.0000   1.0000   1.0000   1.0000

          k =-0.2682 0.3802-0.0076 (  9072 PWs)   bands (ev):

   -19.3242 -19.1161 -11.8607 -11.7156  -8.5914  -8.2628  -7.4249  -6.3749

     occupation numbers 
     1.0000   1.0000   1.0000   1.0000   1.0000   1.0000   1.0000   1.0000

          k =-0.1625 0.3943-0.0101 (  9020 PWs)   bands (ev):

   -19.2755 -19.0844 -12.1483 -12.0070  -7.7748  -7.4647  -6.9272  -5.9039

     occupation numbers 
     1.0000   1.0000   1.0000   1.0000   1.0000   1.0000   1.0000   1.0000

          k =-0.1543 0.4648-0.0127 (  9046 PWs)   bands (ev):

   -19.1686 -19.0012 -12.4190 -12.2805  -7.1555  -6.8522  -6.2048  -5.2903

     occupation numbers 
     1.0000   1.0000   1.0000   1.0000   1.0000   1.0000   1.0000   1.0000

          k =-0.2112 0.4225-0.0101 (  9046 PWs)   bands (ev):

   -19.2405 -19.0517 -12.1470 -12.0053  -7.9703  -7.6507  -6.8703  -5.8663

     occupation numbers 
     1.0000   1.0000   1.0000   1.0000   1.0000   1.0000   1.0000   1.0000

     highest occupied level (ev):    -4.4051

!    total energy              =     -53.13028545 Ry
     estimated scf accuracy    <          9.5E-12 Ry

     The total energy is the sum of the following terms:
     one-electron contribution =    -574.47075821 Ry
     hartree contribution      =     290.18995706 Ry
     xc contribution           =     -16.55796041 Ry
     ewald contribution        =     247.72344701 Ry
     DFT-D3 Dispersion         =      -0.01497089 Ry

     convergence has been achieved in  14 iterations

     negative rho (up, down):  1.174E-04 0.000E+00

     Forces acting on atoms (cartesian axes, Ry/au):

     atom    1 type  1   force =    -0.00051435   -0.00089089   -0.00610184
     atom    2 type  1   force =    -0.00127613   -0.00221031   -0.00141505
     atom    3 type  2   force =     0.00053132    0.00092027    0.00524490
     atom    4 type  2   force =     0.00125916    0.00218093    0.00227199
     The non-local contrib.  to forces
     atom    1 type  1   force =    -0.00116401   -0.00201612    0.01501264
     atom    2 type  1   force =    -0.00167493   -0.00290106   -0.00465445
     atom    3 type  2   force =    -0.00079706   -0.00138056    0.08858927
     atom    4 type  2   force =     0.00172953    0.00299563    0.00926056
     The ionic contribution  to forces
     atom    1 type  1   force =     0.14818210    0.25665891   -7.72758064
     atom    2 type  1   force =    -0.16478032   -0.28540789    8.03870089
     atom    3 type  2   force =     0.27324087    0.47326708  -13.74684508
     atom    4 type  2   force =    -0.25664265   -0.44451810   13.43572483
     The local contribution  to forces
     atom    1 type  1   force =    -0.14762645   -0.25569650    7.70791997
     atom    2 type  1   force =     0.16504892    0.28587313   -8.03541235
     atom    3 type  2   force =    -0.27188549   -0.47091950   13.66313427
     atom    4 type  2   force =     0.25619541    0.44374341  -13.44184459
     The core correction contribution to forces
     atom    1 type  1   force =     0.00009898    0.00017144   -0.00172127
     atom    2 type  1   force =     0.00012338    0.00021370    0.00027626
     atom    3 type  2   force =    -0.00001146   -0.00001985   -0.00041504
     atom    4 type  2   force =    -0.00003699   -0.00006407   -0.00013784
     The Hubbard contrib.    to forces
     atom    1 type  1   force =     0.00000000    0.00000000    0.00000000
     atom    2 type  1   force =     0.00000000    0.00000000    0.00000000
     atom    3 type  2   force =     0.00000000    0.00000000    0.00000000
     atom    4 type  2   force =     0.00000000    0.00000000    0.00000000
     The SCF correction term to forces
     atom    1 type  1   force =    -0.00000001   -0.00000001    0.00000016
     atom    2 type  1   force =     0.00000006    0.00000011   -0.00000255
     atom    3 type  2   force =    -0.00000001   -0.00000003    0.00000052
     atom    4 type  2   force =     0.00000004    0.00000007   -0.00000554

     DFT-D3 dispersion contribution to forces:
     atom    1 type  1   force =    -0.00000500   -0.00000866    0.00026732
     atom    2 type  1   force =     0.00000672    0.00001165   -0.00032285
     atom    3 type  2   force =    -0.00001555   -0.00002693    0.00078097
     atom    4 type  2   force =     0.00001382    0.00002394   -0.00072543

     Total force =     0.009325     Total SCF correction =     0.000006

     DFT-D3 dispersion Force =     0.001146


     Computing stress (Cartesian axis) and pressure


     negative rho (up, down):  1.174E-04 0.000E+00
          total   stress  (Ry/bohr**3)                   (kbar)     P=        0.05
   0.00000139  -0.00000270  -0.00000029            0.20       -0.40       -0.04
  -0.00000270  -0.00000173  -0.00000050           -0.40       -0.25       -0.07
  -0.00000029  -0.00000050   0.00000145           -0.04       -0.07        0.21

     kinetic stress (kbar)   2255.29   -252.13    -11.33
                             -252.13   1964.15    -19.63
                              -11.33    -19.63   2397.32

     local   stress (kbar) -61250.72  -2275.45  -2457.37
                            -2275.45 -63878.18  -4256.30
                            -2457.37  -4256.30  59838.75

     nonloc. stress (kbar)    696.26     32.53      1.34
                               32.53    733.83      2.32
                                1.34      2.32    678.23

     hartree stress (kbar)  30050.14    484.23   1182.97
                              484.23  30609.28   2048.96
                             1182.97   2048.96 -29298.70

     exc-cor stress (kbar)   -272.12      4.56      0.23
                                4.56   -266.85      0.41
                                0.23      0.41   -276.17

     corecor stress (kbar)   -248.60     -5.54     -0.25
                               -5.54   -255.00     -0.43
                               -0.25     -0.43   -245.43

     ewald   stress (kbar)  28770.95   2011.42   1284.37
                             2011.42  31093.54   2224.60
                             1284.37   2224.60 -33093.11

     hubbard stress (kbar)      0.00      0.00      0.00
                                0.00      0.00      0.00
                                0.00      0.00      0.00

     DFT-D   stress (kbar)     -1.00     -0.03     -0.01
                               -0.03     -1.04     -0.01
                               -0.01     -0.01     -0.68

     XDM     stress (kbar)      0.00      0.00      0.00
                                0.00      0.00      0.00
                                0.00      0.00      0.00

     dft-nl  stress (kbar)      0.00      0.00      0.00
                                0.00      0.00      0.00
                                0.00      0.00      0.00

     TS-vdW  stress (kbar)      0.00      0.00      0.00
                                0.00      0.00      0.00
                                0.00      0.00      0.00

     MDB     stress (kbar)      0.00      0.00      0.00
                                0.00      0.00      0.00
                                0.00      0.00      0.00

     3D-RISM stress (kbar)      0.00      0.00      0.00
                                0.00      0.00      0.00
                                0.00      0.00      0.00

     Energy error            =      1.1E-04 Ry
     Gradient error          =      6.1E-03 Ry/Bohr
     Cell gradient error     =      4.0E-01 kbar

     number of scf cycles    =  50
     number of bfgs steps    =  49

     enthalpy           old  =     -53.1301706526 Ry
     enthalpy           new  =     -53.1302854455 Ry

     CASE: enthalpy          _new < enthalpy          _old

     new trust radius        =       0.5696920564 bohr

     The maximum number of steps has been reached.

     End of BFGS Geometry Optimization
     new unit-cell volume =   1255.82864 a.u.^3 (   186.09461 Ang^3 )
     density =      0.44290 g/cm^3

CELL_PARAMETERS (angstrom)
   3.272193194  -0.375870690   0.050271804
  -1.961610163   2.645867084   0.050271804
   0.437429374   0.757649902  23.528938160

ATOMIC_POSITIONS (crystal)
B               -0.1213776695       -0.1213776697        0.4345988811
B                0.2880590632        0.2880590632        0.5661956084
N                0.3791686638        0.3791686639        0.4330103862
N                0.7874832758        0.7874832760        0.5661951243



     Writing config-only to output data dir ./out/BN_rel.save/ :
     XML data file
     NEW-OLD atomic charge density approx. for the potential
     New effective cutoffs (rho, wfc):  787.57   98.66

     negative rho (up, down):  8.378E-05 0.000E+00

     Writing all to output data dir ./out/BN_rel.save/ :
     XML data file, charge density, pseudopotentials, collected wavefunctions
 
     init_run     :      0.61s CPU      2.36s WALL (       1 calls)
     electrons    :    318.35s CPU    350.05s WALL (      50 calls)
     update_pot   :      1.61s CPU      0.37s WALL (      50 calls)
     forces       :      4.60s CPU      5.94s WALL (      50 calls)
     force_dftd3  :      1.41s CPU      1.22s WALL (      50 calls)
     stress       :     15.85s CPU     19.27s WALL (      50 calls)
     stres_dftd3  :      1.43s CPU      1.22s WALL (      50 calls)

     Called by init_run:
     wfcinit      :      0.25s CPU      0.99s WALL (       1 calls)
     wfcinit:atom :      0.01s CPU      0.02s WALL (      64 calls)
     wfcinit:wfcr :      0.21s CPU      0.92s WALL (      64 calls)
     potinit      :      0.08s CPU      0.27s WALL (       1 calls)
     hinit0       :      0.18s CPU      0.94s WALL (       1 calls)

     Called by electrons:
     c_bands      :    257.78s CPU    304.32s WALL (     510 calls)
     sum_band     :     33.84s CPU     38.62s WALL (     510 calls)
     v_of_rho     :      6.50s CPU      1.76s WALL (     541 calls)
     v_h          :      5.47s CPU      0.40s WALL (     541 calls)
     v_xc         :      1.16s CPU      1.56s WALL (     641 calls)
     newd         :      7.21s CPU      1.54s WALL (     541 calls)
                                        1.53s GPU  (     541 calls)
     mix_rho      :      1.27s CPU      1.63s WALL (     510 calls)
     energy_dftd3 :      0.40s CPU      0.80s WALL (      50 calls)

     Called by c_bands:
     init_us_2    :     13.56s CPU     15.89s WALL (   71744 calls)
     cegterg      :    234.78s CPU    271.14s WALL (   32640 calls)

     Called by sum_band:
     sum_band:wei :      0.00s CPU      0.00s WALL (     510 calls)
     sum_band:loo :     30.65s CPU     34.86s WALL (     510 calls)
     sum_band:buf :      0.85s CPU      0.99s WALL (   32640 calls)
     sum_band:ini :      6.20s CPU      7.05s WALL (   32640 calls)
     sum_band:cal :      6.26s CPU      7.13s WALL (   32640 calls)
     sum_band:bec :      5.96s CPU      6.84s WALL (   32640 calls)
     addusdens    :      1.40s CPU      1.56s WALL (     510 calls)
                                        1.55s GPU  (     510 calls)
     addusd:skk   :      0.04s CPU      0.06s WALL (    1020 calls)
                                        0.05s GPU  (    1020 calls)

     Called by *egterg:
     cdiaghg      :     29.87s CPU     36.22s WALL (  131738 calls)
                                       35.28s GPU  (  131738 calls)
     cegterg:over :     31.79s CPU     36.80s WALL (  103514 calls)
     cegterg:upda :      8.99s CPU     10.41s WALL (  103514 calls)
     cegterg:last :      3.84s CPU      4.43s WALL (   89960 calls)
     h_psi        :    111.57s CPU    130.62s WALL (  136218 calls)
                                      129.65s GPU  (  136218 calls)
     s_psi        :     12.70s CPU     14.70s WALL (  136218 calls)
     g_psi        :      0.43s CPU      1.61s WALL (  103514 calls)
                                        0.86s GPU  (  103514 calls)

     Called by h_psi:
     h_psi:calbec :     22.87s CPU     27.86s WALL (  136218 calls)
                                       26.82s GPU  (  136218 calls)
     vloc_psi     :     69.18s CPU     81.63s WALL (  136218 calls)
                                       80.62s GPU  (  136218 calls)
     add_vuspsi   :     11.24s CPU     14.47s WALL (  136218 calls)
                                       13.49s GPU  (  136218 calls)

     General routines
     calbec       :     35.99s CPU     43.30s WALL (  223258 calls)
     fft          :     10.07s CPU      2.85s WALL (    8253 calls)
                                        2.23s GPU  (    7712 calls)
     ffts         :      2.18s CPU      0.46s WALL (    1051 calls)
                                        0.28s GPU  (     510 calls)
     fftw         :     47.71s CPU     60.77s WALL (  305076 calls)
                                       58.62s GPU  (  305076 calls)
     interpolate  :      9.88s CPU      0.83s WALL (     541 calls)
     davcio       :      0.00s CPU      0.01s WALL (      64 calls)
 
     Parallel routines
 
     PWSCF        :   5m43.92s CPU   6m19.56s WALL

 
   This run was terminated on:  16:41: 1   6Aug2025            

=------------------------------------------------------------------------------=
   JOB DONE.
=------------------------------------------------------------------------------=
Warning: ieee_inexact is signaling
FORTRAN STOP
Warning: ieee_inexact is signaling
FORTRAN STOP
Warning: ieee_divide_by_zero is signaling
Warning: ieee_inexact is signaling
FORTRAN STOP
Warning: ieee_inexact is signaling
FORTRAN STOP
