
     Program PWSCF v.7.4 starts on  7Aug2025 at 14:20:37 

     This program is part of the open-source Quantum ESPRESSO suite
     for quantum simulation of materials; please cite
         "P. Giannozzi et al., J. Phys.:Condens. Matter 21 395502 (2009);
         "P. Giannozzi et al., J. Phys.:Condens. Matter 29 465901 (2017);
         "P. Giannozzi et al., J. Chem. Phys. 152 154105 (2020);
          URL http://www.quantum-espresso.org", 
     in publications or presentations arising from this work. More details at
     http://www.quantum-espresso.org/quote

     Parallel version (MPI & OpenMP), running on      80 processor cores
     Number of MPI processes:                 4
     Threads/MPI process:                    20

     MPI processes distributed on     1 nodes
     795930 MiB available memory on the printing compute node when the environment starts
 
     Waiting for input...
     Reading input from standard input

     Current dimensions of program PWSCF are:
     Max number of different atomic species (ntypx) = 10
     Max number of k-points (npk) =  40000
     Max angular momentum in pseudopotentials (lmaxx) =  4

     File ./out/BN_rel.update deleted, as requested

     File ./out/BN_rel.bfgs deleted, as requested
     Message from routine setup:
     using ibrav=0 with symmetry is DISCOURAGED, use correct ibrav instead
 
     R & G space division:  proc/nbgrp/npool/nimage =       4
     Subspace diagonalization in iterative solution of the eigenvalue problem:
     a serial algorithm will be used

 
     Parallelization info
     --------------------
     sticks:   dense  smooth     PW     G-vecs:    dense   smooth      PW
     Min         192      94     30                50728    17894    3198
     Max         193      95     31                50759    17939    3239
     Sum         769     379    121               202991    71685   12853
 
     Using Slab Decomposition
 


     bravais-lattice index     =            0
     lattice parameter (alat)  =       4.8262  a.u.
     unit-cell volume          =    1143.5878 (a.u.)^3
     number of atoms/cell      =            4
     number of atomic types    =            2
     number of electrons       =        16.00
     number of Kohn-Sham states=            8
     kinetic-energy cutoff     =      60.0000  Ry
     charge density cutoff     =     480.0000  Ry
     scf convergence threshold =      8.0E-10
     mixing beta               =       0.4000
     number of iterations used =            8  plain     mixing
     energy convergence thresh.=      4.0E-05
     force convergence thresh. =      1.0E-04
     press convergence thresh. =      5.0E-01
     Exchange-correlation= PBESOL
                           (   1   4  10   8   0   0   0)
     nstep                     =           50


     GPU acceleration is ACTIVE.  1 visible GPUs per MPI rank
     GPU-aware MPI enabled

     Message from routine print_cuda_info:
     High GPU oversubscription detected. Are you sure this is what you want?

     GPU used by master process:

        Device Number: 0
        Device name: NVIDIA GH200 120GB
        Compute capability : 90
        Ratio of single to double precision performance  : 2
        Memory Clock Rate (KHz): 2619000
        Memory Bus Width (bits): 6144
        Peak Memory Bandwidth (GB/s): ******

     celldm(1)=   4.826245  celldm(2)=   0.000000  celldm(3)=   0.000000
     celldm(4)=   0.000000  celldm(5)=   0.000000  celldm(6)=   0.000000

     crystal axes: (cart. coord. in units of alat)
               a(1) = (   1.000000   0.000000   0.000000 )  
               a(2) = (   0.500000   0.866025   0.000000 )  
               a(3) = (   0.000000   0.000000  11.746561 )  

     reciprocal axes: (cart. coord. in units 2 pi/alat)
               b(1) = (  1.000000 -0.577350  0.000000 )  
               b(2) = (  0.000000  1.154701  0.000000 )  
               b(3) = (  0.000000  0.000000  0.085131 )  


     PseudoPot. # 1 for B  read from file:
     ./pseudo/b_pbesol_v1.4.uspp.F.UPF
     MD5 check sum: 369b69bef2c3aeed4453bd8b804fd6a8
     Pseudo is Ultrasoft + core correction, Zval =  3.0
     Generated by new atomic code, or converted to UPF format
     Using radial grid of  781 points,  4 beta functions with: 
                l(1) =   0
                l(2) =   0
                l(3) =   1
                l(4) =   1
     Q(r) pseudized with  8 coefficients,  rinner =    1.100   1.100   1.100


     PseudoPot. # 2 for N  read from file:
     ./pseudo/N.pbesol-theos.UPF
     MD5 check sum: 1b64827339d390a5a22afef3ff345c9d
     Pseudo is Ultrasoft + core correction, Zval =  5.0
     Generated using "atomic" code by A. Dal Corso  v.5.1
     Using radial grid of 1085 points,  4 beta functions with: 
                l(1) =   0
                l(2) =   0
                l(3) =   1
                l(4) =   1
     Q(r) pseudized with 0 coefficients 


     atomic species   valence    mass     pseudopotential
     B                 3.00    10.81100     B ( 1.00)
     N                 5.00    14.00670     N ( 1.00)

      6 Sym. Ops. (no inversion) found


                                    s                        frac. trans.

      isym =  1     identity                                     

 cryst.   s( 1) = (     1          0          0      )
                  (     0          1          0      )
                  (     0          0          1      )

 cart.    s( 1) = (  1.0000000  0.0000000  0.0000000 )
                  (  0.0000000  1.0000000  0.0000000 )
                  (  0.0000000  0.0000000  1.0000000 )


      isym =  2     120 deg rotation - cryst. axis [0,0,1]       

 cryst.   s( 2) = (    -1          1          0      )
                  (    -1          0          0      )
                  (     0          0          1      )

 cart.    s( 2) = ( -0.5000000 -0.8660254  0.0000000 )
                  (  0.8660254 -0.5000000  0.0000000 )
                  (  0.0000000  0.0000000  1.0000000 )


      isym =  3     120 deg rotation - cryst. axis [0,0,-1]      

 cryst.   s( 3) = (     0         -1          0      )
                  (     1         -1          0      )
                  (     0          0          1      )

 cart.    s( 3) = ( -0.5000000  0.8660254  0.0000000 )
                  ( -0.8660254 -0.5000000  0.0000000 )
                  (  0.0000000  0.0000000  1.0000000 )


      isym =  4     inv. 180 deg rotation - cart. axis [1,0,0]   

 cryst.   s( 4) = (    -1          0          0      )
                  (    -1          1          0      )
                  (     0          0          1      )

 cart.    s( 4) = ( -1.0000000  0.0000000  0.0000000 )
                  (  0.0000000  1.0000000  0.0000000 )
                  (  0.0000000  0.0000000  1.0000000 )


      isym =  5     inv. 180 deg rotation - cryst. axis [0,1,0]  

 cryst.   s( 5) = (     0          1          0      )
                  (     1          0          0      )
                  (     0          0          1      )

 cart.    s( 5) = (  0.5000000  0.8660254  0.0000000 )
                  (  0.8660254 -0.5000000  0.0000000 )
                  (  0.0000000  0.0000000  1.0000000 )


      isym =  6     inv. 180 deg rotation - cryst. axis [1,1,0]  

 cryst.   s( 6) = (     1         -1          0      )
                  (     0         -1          0      )
                  (     0          0          1      )

 cart.    s( 6) = (  0.5000000 -0.8660254  0.0000000 )
                  ( -0.8660254 -0.5000000  0.0000000 )
                  (  0.0000000  0.0000000  1.0000000 )


   Cartesian axes

     site n.     atom                  positions (alat units)
         1        B      tau(   1) = (   0.0000000   0.0000000   5.2859524  )
         2        B      tau(   2) = (   0.5000000   0.2886751   6.4606085  )
         3        N      tau(   3) = (   0.5000000   0.2886751   5.2859524  )
         4        N      tau(   4) = (   1.0000000   0.5773503   6.4606085  )

     --------------------------------------------
     DFT-D3 Dispersion Correction (3-body terms):
     --------------------------------------------
       Reference C6 values for interpolation: 

         atom   Coordination number   C6
         B          0.000           214.36
         B          0.971           150.74
         B          1.944           106.23
         B          2.913            62.89
         B          4.586            56.06
         N          0.000            50.54
         N          0.994            44.25
         N          2.014            39.35
         N          2.990            31.16

       Values used:

         atom   Coordination number  R0_AB[au]  C6      C8
         B          3.270            3.039     62.93   2507.48
         B          3.272            3.039     62.93   2507.45
         N          3.111            2.478     31.23    688.93
         N          3.110            2.478     31.23    688.94

         Molecular C6 ( Ry / a.u.^6 ) =       724.66


   Crystallographic axes

     site n.     atom                  positions (cryst. coord.)
         1        B      tau(   1) = (  0.0000000  0.0000000  0.4500000  )
         2        B      tau(   2) = (  0.3333333  0.3333333  0.5500000  )
         3        N      tau(   3) = (  0.3333333  0.3333333  0.4500000  )
         4        N      tau(   4) = (  0.6666667  0.6666667  0.5500000  )

     number of k points=    27
                       cart. coord. in units 2pi/alat
        k(    1) = (   0.0000000   0.0000000   0.0000000), wk =   0.0088889
        k(    2) = (   0.0000000   0.0769800   0.0000000), wk =   0.0533333
        k(    3) = (   0.0000000   0.1539601   0.0000000), wk =   0.0533333
        k(    4) = (   0.0000000   0.2309401   0.0000000), wk =   0.0533333
        k(    5) = (   0.0000000   0.3079201   0.0000000), wk =   0.0533333
        k(    6) = (   0.0000000   0.3849002   0.0000000), wk =   0.0533333
        k(    7) = (   0.0000000   0.4618802   0.0000000), wk =   0.0533333
        k(    8) = (   0.0000000   0.5388603   0.0000000), wk =   0.0533333
        k(    9) = (   0.0666667   0.1154701   0.0000000), wk =   0.0533333
        k(   10) = (   0.0666667   0.1924501   0.0000000), wk =   0.1066667
        k(   11) = (   0.0666667   0.2694301   0.0000000), wk =   0.1066667
        k(   12) = (   0.0666667   0.3464102   0.0000000), wk =   0.1066667
        k(   13) = (   0.0666667   0.4233902   0.0000000), wk =   0.1066667
        k(   14) = (   0.0666667   0.5003702   0.0000000), wk =   0.1066667
        k(   15) = (   0.0666667  -0.5773503   0.0000000), wk =   0.0533333
        k(   16) = (   0.1333333   0.2309401   0.0000000), wk =   0.0533333
        k(   17) = (   0.1333333   0.3079201   0.0000000), wk =   0.1066667
        k(   18) = (   0.1333333   0.3849002   0.0000000), wk =   0.1066667
        k(   19) = (   0.1333333   0.4618802   0.0000000), wk =   0.1066667
        k(   20) = (   0.1333333  -0.6158403   0.0000000), wk =   0.1066667
        k(   21) = (   0.2000000   0.3464102   0.0000000), wk =   0.0533333
        k(   22) = (   0.2000000   0.4233902   0.0000000), wk =   0.1066667
        k(   23) = (   0.2000000  -0.6543303   0.0000000), wk =   0.1066667
        k(   24) = (   0.2000000  -0.5773503   0.0000000), wk =   0.0533333
        k(   25) = (   0.2666667  -0.6928203   0.0000000), wk =   0.0533333
        k(   26) = (   0.2666667  -0.6158403   0.0000000), wk =   0.1066667
        k(   27) = (   0.3333333  -0.5773503   0.0000000), wk =   0.0177778

                       cryst. coord.
        k(    1) = (   0.0000000   0.0000000   0.0000000), wk =   0.0088889
        k(    2) = (   0.0000000   0.0666667   0.0000000), wk =   0.0533333
        k(    3) = (   0.0000000   0.1333333   0.0000000), wk =   0.0533333
        k(    4) = (   0.0000000   0.2000000   0.0000000), wk =   0.0533333
        k(    5) = (   0.0000000   0.2666667   0.0000000), wk =   0.0533333
        k(    6) = (   0.0000000   0.3333333   0.0000000), wk =   0.0533333
        k(    7) = (   0.0000000   0.4000000   0.0000000), wk =   0.0533333
        k(    8) = (   0.0000000   0.4666667   0.0000000), wk =   0.0533333
        k(    9) = (   0.0666667   0.1333333   0.0000000), wk =   0.0533333
        k(   10) = (   0.0666667   0.2000000   0.0000000), wk =   0.1066667
        k(   11) = (   0.0666667   0.2666667   0.0000000), wk =   0.1066667
        k(   12) = (   0.0666667   0.3333333   0.0000000), wk =   0.1066667
        k(   13) = (   0.0666667   0.4000000   0.0000000), wk =   0.1066667
        k(   14) = (   0.0666667   0.4666667   0.0000000), wk =   0.1066667
        k(   15) = (   0.0666667  -0.4666667   0.0000000), wk =   0.0533333
        k(   16) = (   0.1333333   0.2666667   0.0000000), wk =   0.0533333
        k(   17) = (   0.1333333   0.3333333   0.0000000), wk =   0.1066667
        k(   18) = (   0.1333333   0.4000000   0.0000000), wk =   0.1066667
        k(   19) = (   0.1333333   0.4666667   0.0000000), wk =   0.1066667
        k(   20) = (   0.1333333  -0.4666667   0.0000000), wk =   0.1066667
        k(   21) = (   0.2000000   0.4000000   0.0000000), wk =   0.0533333
        k(   22) = (   0.2000000   0.4666667   0.0000000), wk =   0.1066667
        k(   23) = (   0.2000000  -0.4666667   0.0000000), wk =   0.1066667
        k(   24) = (   0.2000000  -0.4000000   0.0000000), wk =   0.0533333
        k(   25) = (   0.2666667  -0.4666667   0.0000000), wk =   0.0533333
        k(   26) = (   0.2666667  -0.4000000   0.0000000), wk =   0.1066667
        k(   27) = (   0.3333333  -0.3333333   0.0000000), wk =   0.0177778

     Dense  grid:   202991 G-vectors     FFT dimensions: (  36,  36, 400)

     Smooth grid:    71685 G-vectors     FFT dimensions: (  24,  24, 288)

     Dynamical RAM for                 wfc:       0.27 MB

     Dynamical RAM for     wfc (w. buffer):       7.67 MB

     Dynamical RAM for           str. fact:       1.55 MB

     Dynamical RAM for           local pot:       0.00 MB

     Dynamical RAM for          nlocal pot:       1.10 MB

     Dynamical RAM for                qrad:       2.01 MB

     Dynamical RAM for          rho,v,vnew:       5.29 MB

     Dynamical RAM for               rhoin:       1.76 MB

     Dynamical RAM for            rho*nmix:      12.38 MB

     Dynamical RAM for           G-vectors:       3.04 MB

     Dynamical RAM for          h,s,v(r/c):       0.01 MB

     Dynamical RAM for          <psi|beta>:       0.00 MB

     Dynamical RAM for                 psi:       0.55 MB

     Dynamical RAM for                hpsi:       0.55 MB

     Dynamical RAM for                spsi:       0.55 MB

     Dynamical RAM for      wfcinit/wfcrot:       0.55 MB

     Dynamical RAM for           addusdens:      34.83 MB

     Dynamical RAM for          addusforce:      36.77 MB

     Dynamical RAM for         addusstress:      38.70 MB

     Estimated static dynamical RAM per process >      29.68 MB

     Estimated max dynamical RAM per process >      80.76 MB

     Estimated total dynamical RAM >     323.05 MB

     Initial potential from superposition of free atoms

     starting charge      15.9994, renormalised to      16.0000

     negative rho (up, down):  3.996E-05 0.000E+00
     Starting wfcs are   16 randomized atomic wfcs

     total cpu time spent up to now is        2.7 secs

     per-process dynamical memory:   377.5 Mb

     Self-consistent Calculation
[tb_dev] Currently allocated     5.62E-01 Mbytes, locked:    0 /   6
[tb_pin] Currently allocated     0.00E+00 Mbytes, locked:    0 /   0

     iteration #  1     ecut=    60.00 Ry     beta= 0.40
     Davidson diagonalization with overlap

---- Real-time Memory Report at c_bands before calling an iterative solver
           858 MiB given to the printing process from OS
           368 MiB allocation reported by mallinfo(arena+hblkhd)
        790267 MiB available memory on the node where the printing process lives
     GPU memory used/free/total (MiB): 2307 / 94460 / 96768
------------------
     ethr =  1.00E-02,  avg # of iterations =  2.0

     negative rho (up, down):  1.912E-05 0.000E+00

     total cpu time spent up to now is        3.4 secs

     total energy              =     -53.28367390 Ry
     estimated scf accuracy    <       0.69288872 Ry
[tb_dev] Currently allocated     3.05E-05 Mbytes, locked:    0 /   2
[tb_pin] Currently allocated     0.00E+00 Mbytes, locked:    0 /   0

     iteration #  2     ecut=    60.00 Ry     beta= 0.40
     Davidson diagonalization with overlap

---- Real-time Memory Report at c_bands before calling an iterative solver
           887 MiB given to the printing process from OS
           417 MiB allocation reported by mallinfo(arena+hblkhd)
        790122 MiB available memory on the node where the printing process lives
     GPU memory used/free/total (MiB): 2315 / 94453 / 96768
------------------
     ethr =  4.33E-03,  avg # of iterations =  2.0

     negative rho (up, down):  1.730E-05 0.000E+00

     total cpu time spent up to now is        3.8 secs

     total energy              =     -53.35238667 Ry
     estimated scf accuracy    <       0.06581991 Ry
[tb_dev] Currently allocated     3.05E-05 Mbytes, locked:    0 /   2
[tb_pin] Currently allocated     0.00E+00 Mbytes, locked:    0 /   0

     iteration #  3     ecut=    60.00 Ry     beta= 0.40
     Davidson diagonalization with overlap

---- Real-time Memory Report at c_bands before calling an iterative solver
           892 MiB given to the printing process from OS
           417 MiB allocation reported by mallinfo(arena+hblkhd)
        791135 MiB available memory on the node where the printing process lives
     GPU memory used/free/total (MiB): 2315 / 94452 / 96768
------------------
     ethr =  4.11E-04,  avg # of iterations =  5.4

     negative rho (up, down):  2.246E-05 0.000E+00

     total cpu time spent up to now is        4.2 secs

     total energy              =     -53.37917143 Ry
     estimated scf accuracy    <       0.05241596 Ry
[tb_dev] Currently allocated     3.05E-05 Mbytes, locked:    0 /   2
[tb_pin] Currently allocated     0.00E+00 Mbytes, locked:    0 /   0

     iteration #  4     ecut=    60.00 Ry     beta= 0.40
     Davidson diagonalization with overlap

---- Real-time Memory Report at c_bands before calling an iterative solver
           908 MiB given to the printing process from OS
           436 MiB allocation reported by mallinfo(arena+hblkhd)
        791073 MiB available memory on the node where the printing process lives
     GPU memory used/free/total (MiB): 2316 / 94451 / 96768
------------------
     ethr =  3.28E-04,  avg # of iterations =  4.4

     negative rho (up, down):  3.265E-05 0.000E+00

     total cpu time spent up to now is        4.6 secs

     total energy              =     -53.39340869 Ry
     estimated scf accuracy    <       0.01355389 Ry
[tb_dev] Currently allocated     3.05E-05 Mbytes, locked:    0 /   2
[tb_pin] Currently allocated     0.00E+00 Mbytes, locked:    0 /   0

     iteration #  5     ecut=    60.00 Ry     beta= 0.40
     Davidson diagonalization with overlap

---- Real-time Memory Report at c_bands before calling an iterative solver
           911 MiB given to the printing process from OS
           437 MiB allocation reported by mallinfo(arena+hblkhd)
        791058 MiB available memory on the node where the printing process lives
     GPU memory used/free/total (MiB): 2316 / 94451 / 96768
------------------
     ethr =  8.47E-05,  avg # of iterations =  2.9

     negative rho (up, down):  3.247E-05 0.000E+00

     total cpu time spent up to now is        4.9 secs

     total energy              =     -53.39280475 Ry
     estimated scf accuracy    <       0.00854954 Ry
[tb_dev] Currently allocated     3.05E-05 Mbytes, locked:    0 /   2
[tb_pin] Currently allocated     0.00E+00 Mbytes, locked:    0 /   0

     iteration #  6     ecut=    60.00 Ry     beta= 0.40
     Davidson diagonalization with overlap

---- Real-time Memory Report at c_bands before calling an iterative solver
           911 MiB given to the printing process from OS
           437 MiB allocation reported by mallinfo(arena+hblkhd)
        791043 MiB available memory on the node where the printing process lives
     GPU memory used/free/total (MiB): 2316 / 94451 / 96768
------------------
     ethr =  5.34E-05,  avg # of iterations =  1.4

     negative rho (up, down):  3.359E-05 0.000E+00

     total cpu time spent up to now is        5.1 secs

     total energy              =     -53.39147233 Ry
     estimated scf accuracy    <       0.00325812 Ry
[tb_dev] Currently allocated     3.05E-05 Mbytes, locked:    0 /   2
[tb_pin] Currently allocated     0.00E+00 Mbytes, locked:    0 /   0

     iteration #  7     ecut=    60.00 Ry     beta= 0.40
     Davidson diagonalization with overlap

---- Real-time Memory Report at c_bands before calling an iterative solver
           915 MiB given to the printing process from OS
           438 MiB allocation reported by mallinfo(arena+hblkhd)
        791043 MiB available memory on the node where the printing process lives
     GPU memory used/free/total (MiB): 2316 / 94451 / 96768
------------------
     ethr =  2.04E-05,  avg # of iterations =  2.9

     negative rho (up, down):  3.504E-05 0.000E+00

     total cpu time spent up to now is        5.4 secs

     total energy              =     -53.39247603 Ry
     estimated scf accuracy    <       0.00002037 Ry
[tb_dev] Currently allocated     3.05E-05 Mbytes, locked:    0 /   2
[tb_pin] Currently allocated     0.00E+00 Mbytes, locked:    0 /   0

     iteration #  8     ecut=    60.00 Ry     beta= 0.40
     Davidson diagonalization with overlap

---- Real-time Memory Report at c_bands before calling an iterative solver
           915 MiB given to the printing process from OS
           439 MiB allocation reported by mallinfo(arena+hblkhd)
        791043 MiB available memory on the node where the printing process lives
     GPU memory used/free/total (MiB): 2316 / 94451 / 96768
------------------
     ethr =  1.27E-07,  avg # of iterations =  7.1

     negative rho (up, down):  3.519E-05 0.000E+00

     total cpu time spent up to now is        5.9 secs

     total energy              =     -53.39255483 Ry
     estimated scf accuracy    <       0.00001700 Ry
[tb_dev] Currently allocated     3.05E-05 Mbytes, locked:    0 /   2
[tb_pin] Currently allocated     0.00E+00 Mbytes, locked:    0 /   0

     iteration #  9     ecut=    60.00 Ry     beta= 0.40
     Davidson diagonalization with overlap

---- Real-time Memory Report at c_bands before calling an iterative solver
           915 MiB given to the printing process from OS
           439 MiB allocation reported by mallinfo(arena+hblkhd)
        791043 MiB available memory on the node where the printing process lives
     GPU memory used/free/total (MiB): 2316 / 94451 / 96768
------------------
     ethr =  1.06E-07,  avg # of iterations =  2.6

     negative rho (up, down):  3.530E-05 0.000E+00

     total cpu time spent up to now is        6.1 secs

     total energy              =     -53.39254783 Ry
     estimated scf accuracy    <       0.00003498 Ry
[tb_dev] Currently allocated     3.05E-05 Mbytes, locked:    0 /   2
[tb_pin] Currently allocated     0.00E+00 Mbytes, locked:    0 /   0

     iteration # 10     ecut=    60.00 Ry     beta= 0.40
     Davidson diagonalization with overlap

---- Real-time Memory Report at c_bands before calling an iterative solver
           919 MiB given to the printing process from OS
           440 MiB allocation reported by mallinfo(arena+hblkhd)
        791036 MiB available memory on the node where the printing process lives
     GPU memory used/free/total (MiB): 2316 / 94451 / 96768
------------------
     ethr =  1.06E-07,  avg # of iterations =  1.0

     negative rho (up, down):  3.541E-05 0.000E+00

     total cpu time spent up to now is        6.3 secs

     total energy              =     -53.39254028 Ry
     estimated scf accuracy    <       0.00001569 Ry
[tb_dev] Currently allocated     3.05E-05 Mbytes, locked:    0 /   2
[tb_pin] Currently allocated     0.00E+00 Mbytes, locked:    0 /   0

     iteration # 11     ecut=    60.00 Ry     beta= 0.40
     Davidson diagonalization with overlap

---- Real-time Memory Report at c_bands before calling an iterative solver
           919 MiB given to the printing process from OS
           440 MiB allocation reported by mallinfo(arena+hblkhd)
        791028 MiB available memory on the node where the printing process lives
     GPU memory used/free/total (MiB): 2316 / 94451 / 96768
------------------
     ethr =  9.81E-08,  avg # of iterations =  2.9

     negative rho (up, down):  3.541E-05 0.000E+00

     total cpu time spent up to now is        6.6 secs

     total energy              =     -53.39254489 Ry
     estimated scf accuracy    <       0.00000012 Ry
[tb_dev] Currently allocated     3.05E-05 Mbytes, locked:    0 /   2
[tb_pin] Currently allocated     0.00E+00 Mbytes, locked:    0 /   0

     iteration # 12     ecut=    60.00 Ry     beta= 0.40
     Davidson diagonalization with overlap

---- Real-time Memory Report at c_bands before calling an iterative solver
           919 MiB given to the printing process from OS
           440 MiB allocation reported by mallinfo(arena+hblkhd)
        791028 MiB available memory on the node where the printing process lives
     GPU memory used/free/total (MiB): 2316 / 94451 / 96768
------------------
     ethr =  7.72E-10,  avg # of iterations =  7.4

     negative rho (up, down):  3.546E-05 0.000E+00

     total cpu time spent up to now is        7.2 secs

     total energy              =     -53.39254535 Ry
     estimated scf accuracy    <       0.00000038 Ry
[tb_dev] Currently allocated     3.05E-05 Mbytes, locked:    0 /   2
[tb_pin] Currently allocated     0.00E+00 Mbytes, locked:    0 /   0

     iteration # 13     ecut=    60.00 Ry     beta= 0.40
     Davidson diagonalization with overlap

---- Real-time Memory Report at c_bands before calling an iterative solver
           919 MiB given to the printing process from OS
           440 MiB allocation reported by mallinfo(arena+hblkhd)
        791020 MiB available memory on the node where the printing process lives
     GPU memory used/free/total (MiB): 2316 / 94451 / 96768
------------------
     ethr =  7.72E-10,  avg # of iterations =  2.0

     negative rho (up, down):  3.550E-05 0.000E+00

     total cpu time spent up to now is        7.4 secs

     total energy              =     -53.39254526 Ry
     estimated scf accuracy    <       0.00000016 Ry
[tb_dev] Currently allocated     3.05E-05 Mbytes, locked:    0 /   2
[tb_pin] Currently allocated     0.00E+00 Mbytes, locked:    0 /   0

     iteration # 14     ecut=    60.00 Ry     beta= 0.40
     Davidson diagonalization with overlap

---- Real-time Memory Report at c_bands before calling an iterative solver
           919 MiB given to the printing process from OS
           440 MiB allocation reported by mallinfo(arena+hblkhd)
        791012 MiB available memory on the node where the printing process lives
     GPU memory used/free/total (MiB): 2316 / 94451 / 96768
------------------
     ethr =  7.72E-10,  avg # of iterations =  5.7

     negative rho (up, down):  3.550E-05 0.000E+00

     total cpu time spent up to now is        7.8 secs

     total energy              =     -53.39254537 Ry
     estimated scf accuracy    <       0.00000011 Ry
[tb_dev] Currently allocated     3.05E-05 Mbytes, locked:    0 /   2
[tb_pin] Currently allocated     0.00E+00 Mbytes, locked:    0 /   0

     iteration # 15     ecut=    60.00 Ry     beta= 0.40
     Davidson diagonalization with overlap

---- Real-time Memory Report at c_bands before calling an iterative solver
           919 MiB given to the printing process from OS
           440 MiB allocation reported by mallinfo(arena+hblkhd)
        816177 MiB available memory on the node where the printing process lives
     GPU memory used/free/total (MiB): 2189 / 94578 / 96768
------------------
     ethr =  6.66E-10,  avg # of iterations =  1.0

     negative rho (up, down):  3.550E-05 0.000E+00

     total cpu time spent up to now is        8.0 secs

     total energy              =     -53.39254533 Ry
     estimated scf accuracy    <       0.00000011 Ry
[tb_dev] Currently allocated     3.05E-05 Mbytes, locked:    0 /   2
[tb_pin] Currently allocated     0.00E+00 Mbytes, locked:    0 /   0

     iteration # 16     ecut=    60.00 Ry     beta= 0.40
     Davidson diagonalization with overlap

---- Real-time Memory Report at c_bands before calling an iterative solver
           921 MiB given to the printing process from OS
           440 MiB allocation reported by mallinfo(arena+hblkhd)
        816177 MiB available memory on the node where the printing process lives
     GPU memory used/free/total (MiB): 2189 / 94578 / 96768
------------------
     ethr =  6.66E-10,  avg # of iterations =  1.7

     negative rho (up, down):  3.550E-05 0.000E+00

     total cpu time spent up to now is        8.3 secs

     total energy              =     -53.39254534 Ry
     estimated scf accuracy    <       0.00000002 Ry
[tb_dev] Currently allocated     3.05E-05 Mbytes, locked:    0 /   2
[tb_pin] Currently allocated     0.00E+00 Mbytes, locked:    0 /   0

     iteration # 17     ecut=    60.00 Ry     beta= 0.40
     Davidson diagonalization with overlap

---- Real-time Memory Report at c_bands before calling an iterative solver
           921 MiB given to the printing process from OS
           440 MiB allocation reported by mallinfo(arena+hblkhd)
        816177 MiB available memory on the node where the printing process lives
     GPU memory used/free/total (MiB): 2189 / 94578 / 96768
------------------
     ethr =  1.56E-10,  avg # of iterations =  2.2

     negative rho (up, down):  3.550E-05 0.000E+00

     total cpu time spent up to now is        8.5 secs

     total energy              =     -53.39254533 Ry
     estimated scf accuracy    <       0.00000002 Ry
[tb_dev] Currently allocated     3.05E-05 Mbytes, locked:    0 /   2
[tb_pin] Currently allocated     0.00E+00 Mbytes, locked:    0 /   0

     iteration # 18     ecut=    60.00 Ry     beta= 0.40
     Davidson diagonalization with overlap

---- Real-time Memory Report at c_bands before calling an iterative solver
           921 MiB given to the printing process from OS
           440 MiB allocation reported by mallinfo(arena+hblkhd)
        816170 MiB available memory on the node where the printing process lives
     GPU memory used/free/total (MiB): 2189 / 94578 / 96768
------------------
     ethr =  1.07E-10,  avg # of iterations =  3.6

     negative rho (up, down):  3.550E-05 0.000E+00

     total cpu time spent up to now is        8.8 secs

     total energy              =     -53.39254534 Ry
     estimated scf accuracy    <          9.0E-10 Ry
[tb_dev] Currently allocated     3.05E-05 Mbytes, locked:    0 /   2
[tb_pin] Currently allocated     0.00E+00 Mbytes, locked:    0 /   0

     iteration # 19     ecut=    60.00 Ry     beta= 0.40
     Davidson diagonalization with overlap

---- Real-time Memory Report at c_bands before calling an iterative solver
           921 MiB given to the printing process from OS
           440 MiB allocation reported by mallinfo(arena+hblkhd)
        816171 MiB available memory on the node where the printing process lives
     GPU memory used/free/total (MiB): 2189 / 94578 / 96768
------------------
     ethr =  5.61E-12,  avg # of iterations =  5.0

     negative rho (up, down):  3.550E-05 0.000E+00

     total cpu time spent up to now is        9.2 secs

     total energy              =     -53.39254534 Ry
     estimated scf accuracy    <          2.8E-09 Ry
[tb_dev] Currently allocated     3.05E-05 Mbytes, locked:    0 /   2
[tb_pin] Currently allocated     0.00E+00 Mbytes, locked:    0 /   0

     iteration # 20     ecut=    60.00 Ry     beta= 0.40
     Davidson diagonalization with overlap

---- Real-time Memory Report at c_bands before calling an iterative solver
           921 MiB given to the printing process from OS
           440 MiB allocation reported by mallinfo(arena+hblkhd)
        816171 MiB available memory on the node where the printing process lives
     GPU memory used/free/total (MiB): 2189 / 94578 / 96768
------------------
     ethr =  5.61E-12,  avg # of iterations =  2.6

     negative rho (up, down):  3.550E-05 0.000E+00

     total cpu time spent up to now is        9.5 secs

     total energy              =     -53.39254534 Ry
     estimated scf accuracy    <          8.0E-10 Ry
[tb_dev] Currently allocated     3.05E-05 Mbytes, locked:    0 /   2
[tb_pin] Currently allocated     0.00E+00 Mbytes, locked:    0 /   0

     iteration # 21     ecut=    60.00 Ry     beta= 0.40
     Davidson diagonalization with overlap

---- Real-time Memory Report at c_bands before calling an iterative solver
           921 MiB given to the printing process from OS
           440 MiB allocation reported by mallinfo(arena+hblkhd)
        816171 MiB available memory on the node where the printing process lives
     GPU memory used/free/total (MiB): 2189 / 94578 / 96768
------------------
     ethr =  5.01E-12,  avg # of iterations =  4.8

     negative rho (up, down):  3.550E-05 0.000E+00

     total cpu time spent up to now is        9.9 secs

     End of self-consistent calculation

          k = 0.0000 0.0000 0.0000 (  8821 PWs)   bands (ev):

   -21.2048 -20.8060  -9.5300  -7.8364  -5.2242  -5.2242  -4.9716  -4.9716

     occupation numbers 
     1.0000   1.0000   1.0000   1.0000   1.0000   1.0000   1.0000   1.0000

          k = 0.0000 0.0770 0.0000 (  8883 PWs)   bands (ev):

   -21.1213 -20.7248  -9.4172  -7.7333  -5.5800  -5.3845  -5.3273  -5.1311

     occupation numbers 
     1.0000   1.0000   1.0000   1.0000   1.0000   1.0000   1.0000   1.0000

          k = 0.0000 0.1540 0.0000 (  8887 PWs)   bands (ev):

   -20.8740 -20.4841  -9.0820  -7.4330  -6.5220  -6.2677  -5.8032  -5.5477

     occupation numbers 
     1.0000   1.0000   1.0000   1.0000   1.0000   1.0000   1.0000   1.0000

          k = 0.0000 0.2309 0.0000 (  8918 PWs)   bands (ev):

   -20.4725 -20.0940  -8.5447  -7.8302  -7.5618  -6.8953  -6.3474  -6.0899

     occupation numbers 
     1.0000   1.0000   1.0000   1.0000   1.0000   1.0000   1.0000   1.0000

          k = 0.0000 0.3079 0.0000 (  8958 PWs)   bands (ev):

   -19.9379 -19.5762  -9.2503  -8.9925  -7.7550  -6.8944  -6.6352  -6.2475

     occupation numbers 
     1.0000   1.0000   1.0000   1.0000   1.0000   1.0000   1.0000   1.0000

          k = 0.0000 0.3849 0.0000 (  8954 PWs)   bands (ev):

   -19.3136 -18.9756 -10.6130 -10.3396  -7.3598  -7.0994  -6.8582  -5.4875

     occupation numbers 
     1.0000   1.0000   1.0000   1.0000   1.0000   1.0000   1.0000   1.0000

          k = 0.0000 0.4619 0.0000 (  8964 PWs)   bands (ev):

   -18.6924 -18.3865 -11.7539 -11.4742  -7.6929  -7.4318  -5.8850  -4.7696

     occupation numbers 
     1.0000   1.0000   1.0000   1.0000   1.0000   1.0000   1.0000   1.0000

          k = 0.0000 0.5389 0.0000 (  8990 PWs)   bands (ev):

   -18.2616 -17.9885 -12.4439 -12.1650  -7.8657  -7.6041  -5.0845  -4.3739

     occupation numbers 
     1.0000   1.0000   1.0000   1.0000   1.0000   1.0000   1.0000   1.0000

          k = 0.0667 0.1155 0.0000 (  8878 PWs)   bands (ev):

   -20.9559 -20.5638  -9.1931  -7.5307  -6.1981  -5.9495  -5.7007  -5.4500

     occupation numbers 
     1.0000   1.0000   1.0000   1.0000   1.0000   1.0000   1.0000   1.0000

          k = 0.0667 0.1925 0.0000 (  8901 PWs)   bands (ev):

   -20.6312 -20.2481  -8.7537  -7.3145  -7.1217  -6.9508  -6.2417  -5.9883

     occupation numbers 
     1.0000   1.0000   1.0000   1.0000   1.0000   1.0000   1.0000   1.0000

          k = 0.0667 0.2694 0.0000 (  8931 PWs)   bands (ev):

   -20.1619 -19.7928  -8.5927  -8.3764  -8.0250  -6.8372  -6.5838  -6.5158

     occupation numbers 
     1.0000   1.0000   1.0000   1.0000   1.0000   1.0000   1.0000   1.0000

          k = 0.0667 0.3464 0.0000 (  8962 PWs)   bands (ev):

   -19.5785 -19.2294  -9.9479  -9.6840  -7.3742  -7.2528  -7.1084  -5.8058

     occupation numbers 
     1.0000   1.0000   1.0000   1.0000   1.0000   1.0000   1.0000   1.0000

          k = 0.0667 0.4234 0.0000 (  8970 PWs)   bands (ev):

   -18.9444 -18.6230 -11.1954 -10.9203  -7.7904  -7.5293  -6.2971  -5.0464

     occupation numbers 
     1.0000   1.0000   1.0000   1.0000   1.0000   1.0000   1.0000   1.0000

          k = 0.0667 0.5004 0.0000 (  8980 PWs)   bands (ev):

   -18.3935 -18.1066 -12.1264 -11.8479  -8.0517  -7.7893  -5.3675  -4.4547

     occupation numbers 
     1.0000   1.0000   1.0000   1.0000   1.0000   1.0000   1.0000   1.0000

          k = 0.0667-0.5774 0.0000 (  9002 PWs)   bands (ev):

   -18.1582 -17.8918 -12.4863 -12.2089  -8.1406  -7.8778  -4.8762  -4.2859

     occupation numbers 
     1.0000   1.0000   1.0000   1.0000   1.0000   1.0000   1.0000   1.0000

          k = 0.1333 0.2309 0.0000 (  8950 PWs)   bands (ev):

   -20.2379 -19.8664  -8.3180  -8.1895  -7.9328  -6.9335  -6.6878  -6.6055

     occupation numbers 
     1.0000   1.0000   1.0000   1.0000   1.0000   1.0000   1.0000   1.0000

          k = 0.1333 0.3079 0.0000 (  8986 PWs)   bands (ev):

   -19.7160 -19.3614  -9.3888  -9.1466  -7.6336  -7.4636  -7.3602  -5.9709

     occupation numbers 
     1.0000   1.0000   1.0000   1.0000   1.0000   1.0000   1.0000   1.0000

          k = 0.1333 0.3849 0.0000 (  8993 PWs)   bands (ev):

   -19.1101 -18.7790 -10.5754 -10.3161  -8.1980  -7.9396  -6.5581  -5.2329

     occupation numbers 
     1.0000   1.0000   1.0000   1.0000   1.0000   1.0000   1.0000   1.0000

          k = 0.1333 0.4619 0.0000 (  9009 PWs)   bands (ev):

   -18.5129 -18.2128 -11.6092 -11.3381  -8.5828  -8.3191  -5.6078  -4.5402

     occupation numbers 
     1.0000   1.0000   1.0000   1.0000   1.0000   1.0000   1.0000   1.0000

          k = 0.1333-0.6158 0.0000 (  9016 PWs)   bands (ev):

   -18.1042 -17.8343 -12.2434 -11.9685  -8.7769  -8.5109  -4.8312  -4.1598

     occupation numbers 
     1.0000   1.0000   1.0000   1.0000   1.0000   1.0000   1.0000   1.0000

          k = 0.2000 0.3464 0.0000 (  8984 PWs)   bands (ev):

   -19.1676 -18.8333 -10.2302  -9.9935  -8.4762  -8.2268  -6.6473  -5.2984

     occupation numbers 
     1.0000   1.0000   1.0000   1.0000   1.0000   1.0000   1.0000   1.0000

          k = 0.2000 0.4234 0.0000 (  9013 PWs)   bands (ev):

   -18.5825 -18.2749 -11.0883 -10.8417  -9.1364  -8.8803  -5.7414  -4.5966

     occupation numbers 
     1.0000   1.0000   1.0000   1.0000   1.0000   1.0000   1.0000   1.0000

          k = 0.2000-0.6543 0.0000 (  9020 PWs)   bands (ev):

   -18.0884 -17.8110 -11.7931 -11.5297  -9.5281  -9.2627  -4.8687  -4.0594

     occupation numbers 
     1.0000   1.0000   1.0000   1.0000   1.0000   1.0000   1.0000   1.0000

          k = 0.2000-0.5774 0.0000 (  9072 PWs)   bands (ev):

   -17.8832 -17.6222 -12.0758 -11.8055  -9.6556  -9.3866  -4.4148  -3.9080

     occupation numbers 
     1.0000   1.0000   1.0000   1.0000   1.0000   1.0000   1.0000   1.0000

          k = 0.2667-0.6928 0.0000 (  9020 PWs)   bands (ev):

   -18.0868 -17.8060 -11.4724 -11.2347  -9.9430  -9.6908  -4.8914  -4.0256

     occupation numbers 
     1.0000   1.0000   1.0000   1.0000   1.0000   1.0000   1.0000   1.0000

          k = 0.2667-0.6158 0.0000 (  9046 PWs)   bands (ev):

   -17.7677 -17.5081 -11.7053 -11.4528 -10.4099 -10.1517  -4.2247  -3.7271

     occupation numbers 
     1.0000   1.0000   1.0000   1.0000   1.0000   1.0000   1.0000   1.0000

          k = 0.3333-0.5774 0.0000 (  9048 PWs)   bands (ev):

   -17.6469 -17.3938 -11.4747 -11.2784 -10.8730 -10.6747  -3.9314  -3.6315

     occupation numbers 
     1.0000   1.0000   1.0000   1.0000   1.0000   1.0000   1.0000   1.0000

     highest occupied level (ev):    -3.6315

!    total energy              =     -53.39254534 Ry
     estimated scf accuracy    <          1.6E-10 Ry

     The total energy is the sum of the following terms:
     one-electron contribution =   -1022.84893233 Ry
     hartree contribution      =     514.74483285 Ry
     xc contribution           =     -16.73063081 Ry
     ewald contribution        =     471.45619374 Ry
     DFT-D3 Dispersion         =      -0.01400879 Ry

     convergence has been achieved in  21 iterations

     negative rho (up, down):  3.550E-05 0.000E+00

     Forces acting on atoms (cartesian axes, Ry/au):

     atom    1 type  1   force =     0.00000000    0.00000000   -0.00100839
     atom    2 type  1   force =     0.00000000    0.00000000    0.00002100
     atom    3 type  2   force =     0.00000000    0.00000000   -0.00411675
     atom    4 type  2   force =     0.00000000    0.00000000    0.00510413
     The non-local contrib.  to forces
     atom    1 type  1   force =     0.00000000   -0.00000000    0.00044269
     atom    2 type  1   force =     0.00000000   -0.00000000   -0.00269416
     atom    3 type  2   force =    -0.00000000    0.00000000   -0.01388221
     atom    4 type  2   force =     0.00000000    0.00000000    0.01017634
     The ionic contribution  to forces
     atom    1 type  1   force =    -0.00000000    0.00000001  -11.95194886
     atom    2 type  1   force =     0.00000000    0.00000001   11.96868543
     atom    3 type  2   force =     0.00000000   -0.00000001  -19.93665133
     atom    4 type  2   force =    -0.00000000   -0.00000001   19.91991476
     The local contribution  to forces
     atom    1 type  1   force =     0.00000000   -0.00000001   11.94993907
     atom    2 type  1   force =    -0.00000000   -0.00000001  -11.96581708
     atom    3 type  2   force =     0.00000000    0.00000001   19.94551033
     atom    4 type  2   force =    -0.00000000    0.00000000  -19.92371137
     The core correction contribution to forces
     atom    1 type  1   force =    -0.00000000   -0.00000000   -0.00006547
     atom    2 type  1   force =    -0.00000000   -0.00000000    0.00007683
     atom    3 type  2   force =    -0.00000000    0.00000000    0.00015676
     atom    4 type  2   force =     0.00000000    0.00000000   -0.00013189
     The Hubbard contrib.    to forces
     atom    1 type  1   force =     0.00000000    0.00000000    0.00000000
     atom    2 type  1   force =     0.00000000    0.00000000    0.00000000
     atom    3 type  2   force =     0.00000000    0.00000000    0.00000000
     atom    4 type  2   force =     0.00000000    0.00000000    0.00000000
     The SCF correction term to forces
     atom    1 type  1   force =     0.00000000    0.00000000    0.00000027
     atom    2 type  1   force =     0.00000000    0.00000000   -0.00000038
     atom    3 type  2   force =    -0.00000000    0.00000000    0.00000071
     atom    4 type  2   force =     0.00000000    0.00000000   -0.00000039

     DFT-D3 dispersion contribution to forces:
     atom    1 type  1   force =    -0.00000000   -0.00000000    0.00062391
     atom    2 type  1   force =     0.00000000   -0.00000000   -0.00022962
     atom    3 type  2   force =     0.00000000    0.00000000    0.00074901
     atom    4 type  2   force =    -0.00000000    0.00000000   -0.00114331

     Total force =     0.006635     Total SCF correction =     0.000001

     DFT-D3 dispersion Force =     0.001520


     Computing stress (Cartesian axis) and pressure


     negative rho (up, down):  3.550E-05 0.000E+00
          total   stress  (Ry/bohr**3)                   (kbar)     P=      -29.44
  -0.00031084  -0.00000000   0.00000000          -45.73       -0.00        0.00
   0.00000000  -0.00031084   0.00000000            0.00      -45.73        0.00
   0.00000000   0.00000000   0.00002120            0.00        0.00        3.12

     kinetic stress (kbar)   2537.38      0.00      0.00
                                0.00   2537.38      0.00
                                0.00      0.00   2839.59

     local   stress (kbar)-134140.71      0.00      0.00
                                0.00-134140.71      0.00
                                0.00      0.00 132871.18

     nonloc. stress (kbar)    818.24      0.00     -0.00
                                0.00    818.24     -0.00
                               -0.00     -0.00    792.61

     hartree stress (kbar)  65666.29      0.00      0.00
                                0.00  65666.29     -0.00
                                0.00     -0.00 -65118.54

     exc-cor stress (kbar)   -327.62     -0.00     -0.00
                               -0.00   -327.62      0.00
                               -0.00      0.00   -337.38

     corecor stress (kbar)   -297.91      0.00     -0.00
                                0.00   -297.91     -0.00
                               -0.00     -0.00   -289.25

     ewald   stress (kbar)  65699.86     -0.00     -0.00
                               -0.00  65699.86     -0.00
                               -0.00     -0.00 -70754.08

     hubbard stress (kbar)      0.00      0.00      0.00
                                0.00      0.00      0.00
                                0.00      0.00      0.00

     DFT-D   stress (kbar)     -1.26      0.00     -0.00
                                0.00     -1.26     -0.00
                               -0.00     -0.00     -1.00

     XDM     stress (kbar)      0.00      0.00      0.00
                                0.00      0.00      0.00
                                0.00      0.00      0.00

     dft-nl  stress (kbar)      0.00      0.00      0.00
                                0.00      0.00      0.00
                                0.00      0.00      0.00

     TS-vdW  stress (kbar)      0.00      0.00      0.00
                                0.00      0.00      0.00
                                0.00      0.00      0.00

     MDB     stress (kbar)      0.00      0.00      0.00
                                0.00      0.00      0.00
                                0.00      0.00      0.00

     3D-RISM stress (kbar)      0.00      0.00      0.00
                                0.00      0.00      0.00
                                0.00      0.00      0.00


     BFGS Geometry Optimization
     Energy error            =      5.9E-03 Ry
     Gradient error          =      5.1E-03 Ry/Bohr
     Cell gradient error     =      4.6E+01 kbar

     number of scf cycles    =   1
     number of bfgs steps    =   0

     enthalpy           new  =     -53.3925453376 Ry

     new trust radius        =       0.0525591133 bohr
     new conv_thr            =       0.0000000008 Ry

     new unit-cell volume =   1125.88299 a.u.^3 (   166.83865 Ang^3 )
     density =      0.49402 g/cm^3

CELL_PARAMETERS (angstrom)
   2.534092049  -0.000000000   0.000000000
   1.267046025   2.194588087   0.000000000
   0.000000000   0.000000000  30.000000000

ATOMIC_POSITIONS (crystal)
B               -0.0000000000        0.0000000000        0.4499822128
B                0.3333333333        0.3333333333        0.5500003705
N                0.3333333333        0.3333333333        0.4499273836
N                0.6666666667        0.6666666667        0.5500900330



     Writing config-only to output data dir ./out/BN_rel.save/ :
     XML data file
     NEW-OLD atomic charge density approx. for the potential
     New effective cutoffs (rho, wfc):  487.47   60.94

     negative rho (up, down):  4.432E-05 0.000E+00

     total cpu time spent up to now is       10.2 secs

     per-process dynamical memory:   484.8 Mb

     Self-consistent Calculation
[tb_dev] Currently allocated     0.00E+00 Mbytes, locked:    0 /   0
[tb_pin] Currently allocated     0.00E+00 Mbytes, locked:    0 /   0

     iteration #  1     ecut=    60.00 Ry     beta= 0.40
     Davidson diagonalization with overlap

---- Real-time Memory Report at c_bands before calling an iterative solver
           929 MiB given to the printing process from OS
           473 MiB allocation reported by mallinfo(arena+hblkhd)
        816073 MiB available memory on the node where the printing process lives
     GPU memory used/free/total (MiB): 2206 / 94562 / 96768
------------------
     ethr =  1.00E-06,  avg # of iterations =  4.1

     negative rho (up, down):  4.489E-05 0.000E+00

     total cpu time spent up to now is       10.6 secs

     total energy              =     -53.39709996 Ry
     estimated scf accuracy    <       0.00027941 Ry
[tb_dev] Currently allocated     3.05E-05 Mbytes, locked:    0 /   2
[tb_pin] Currently allocated     0.00E+00 Mbytes, locked:    0 /   0

     iteration #  2     ecut=    60.00 Ry     beta= 0.40
     Davidson diagonalization with overlap

---- Real-time Memory Report at c_bands before calling an iterative solver
           929 MiB given to the printing process from OS
           473 MiB allocation reported by mallinfo(arena+hblkhd)
        818332 MiB available memory on the node where the printing process lives
     GPU memory used/free/total (MiB): 1921 / 94847 / 96768
------------------
     ethr =  1.75E-06,  avg # of iterations =  2.0

     negative rho (up, down):  4.592E-05 0.000E+00

     total cpu time spent up to now is       10.9 secs

     total energy              =     -53.39711394 Ry
     estimated scf accuracy    <       0.00004238 Ry
[tb_dev] Currently allocated     3.05E-05 Mbytes, locked:    0 /   2
[tb_pin] Currently allocated     0.00E+00 Mbytes, locked:    0 /   0

     iteration #  3     ecut=    60.00 Ry     beta= 0.40
     Davidson diagonalization with overlap

---- Real-time Memory Report at c_bands before calling an iterative solver
           931 MiB given to the printing process from OS
           473 MiB allocation reported by mallinfo(arena+hblkhd)
        831669 MiB available memory on the node where the printing process lives
     GPU memory used/free/total (MiB): 1807 / 94960 / 96768
------------------
     ethr =  2.65E-07,  avg # of iterations =  3.9

     negative rho (up, down):  4.664E-05 0.000E+00

     total cpu time spent up to now is       11.3 secs

     total energy              =     -53.39712511 Ry
     estimated scf accuracy    <       0.00001443 Ry
[tb_dev] Currently allocated     3.05E-05 Mbytes, locked:    0 /   2
[tb_pin] Currently allocated     0.00E+00 Mbytes, locked:    0 /   0

     iteration #  4     ecut=    60.00 Ry     beta= 0.40
     Davidson diagonalization with overlap

---- Real-time Memory Report at c_bands before calling an iterative solver
           932 MiB given to the printing process from OS
           473 MiB allocation reported by mallinfo(arena+hblkhd)
        831627 MiB available memory on the node where the printing process lives
     GPU memory used/free/total (MiB): 1808 / 94959 / 96768
------------------
     ethr =  9.02E-08,  avg # of iterations =  3.7

     negative rho (up, down):  4.722E-05 0.000E+00

     total cpu time spent up to now is       11.6 secs

     total energy              =     -53.39712832 Ry
     estimated scf accuracy    <       0.00000537 Ry
[tb_dev] Currently allocated     3.05E-05 Mbytes, locked:    0 /   2
[tb_pin] Currently allocated     0.00E+00 Mbytes, locked:    0 /   0

     iteration #  5     ecut=    60.00 Ry     beta= 0.40
     Davidson diagonalization with overlap

---- Real-time Memory Report at c_bands before calling an iterative solver
           932 MiB given to the printing process from OS
           473 MiB allocation reported by mallinfo(arena+hblkhd)
        831365 MiB available memory on the node where the printing process lives
     GPU memory used/free/total (MiB): 1808 / 94959 / 96768
------------------
     ethr =  3.35E-08,  avg # of iterations =  2.0

     negative rho (up, down):  4.756E-05 0.000E+00

     total cpu time spent up to now is       11.8 secs

     total energy              =     -53.39712813 Ry
     estimated scf accuracy    <       0.00000105 Ry
[tb_dev] Currently allocated     3.05E-05 Mbytes, locked:    0 /   2
[tb_pin] Currently allocated     0.00E+00 Mbytes, locked:    0 /   0

     iteration #  6     ecut=    60.00 Ry     beta= 0.40
     Davidson diagonalization with overlap

---- Real-time Memory Report at c_bands before calling an iterative solver
           932 MiB given to the printing process from OS
           473 MiB allocation reported by mallinfo(arena+hblkhd)
        831522 MiB available memory on the node where the printing process lives
     GPU memory used/free/total (MiB): 1808 / 94959 / 96768
------------------
     ethr =  6.54E-09,  avg # of iterations =  4.3

     negative rho (up, down):  4.777E-05 0.000E+00

     total cpu time spent up to now is       12.2 secs

     total energy              =     -53.39712856 Ry
     estimated scf accuracy    <       0.00000030 Ry
[tb_dev] Currently allocated     3.05E-05 Mbytes, locked:    0 /   2
[tb_pin] Currently allocated     0.00E+00 Mbytes, locked:    0 /   0

     iteration #  7     ecut=    60.00 Ry     beta= 0.40
     Davidson diagonalization with overlap

---- Real-time Memory Report at c_bands before calling an iterative solver
           934 MiB given to the printing process from OS
           473 MiB allocation reported by mallinfo(arena+hblkhd)
        831498 MiB available memory on the node where the printing process lives
     GPU memory used/free/total (MiB): 1808 / 94959 / 96768
------------------
     ethr =  1.84E-09,  avg # of iterations =  4.4

     negative rho (up, down):  4.791E-05 0.000E+00

     total cpu time spent up to now is       12.7 secs

     total energy              =     -53.39712858 Ry
     estimated scf accuracy    <       0.00000032 Ry
[tb_dev] Currently allocated     3.05E-05 Mbytes, locked:    0 /   2
[tb_pin] Currently allocated     0.00E+00 Mbytes, locked:    0 /   0

     iteration #  8     ecut=    60.00 Ry     beta= 0.40
     Davidson diagonalization with overlap

---- Real-time Memory Report at c_bands before calling an iterative solver
           934 MiB given to the printing process from OS
           473 MiB allocation reported by mallinfo(arena+hblkhd)
        831687 MiB available memory on the node where the printing process lives
     GPU memory used/free/total (MiB): 1811 / 94956 / 96768
------------------
     ethr =  1.84E-09,  avg # of iterations =  3.5

     negative rho (up, down):  4.799E-05 0.000E+00

     total cpu time spent up to now is       13.0 secs

     total energy              =     -53.39712867 Ry
     estimated scf accuracy    <       0.00000002 Ry
[tb_dev] Currently allocated     3.05E-05 Mbytes, locked:    0 /   2
[tb_pin] Currently allocated     0.00E+00 Mbytes, locked:    0 /   0

     iteration #  9     ecut=    60.00 Ry     beta= 0.40
     Davidson diagonalization with overlap

---- Real-time Memory Report at c_bands before calling an iterative solver
           936 MiB given to the printing process from OS
           473 MiB allocation reported by mallinfo(arena+hblkhd)
        831696 MiB available memory on the node where the printing process lives
     GPU memory used/free/total (MiB): 1811 / 94956 / 96768
------------------
     ethr =  1.06E-10,  avg # of iterations =  4.3

     negative rho (up, down):  4.804E-05 0.000E+00

     total cpu time spent up to now is       13.4 secs

     total energy              =     -53.39712868 Ry
     estimated scf accuracy    <          9.3E-09 Ry
[tb_dev] Currently allocated     3.05E-05 Mbytes, locked:    0 /   2
[tb_pin] Currently allocated     0.00E+00 Mbytes, locked:    0 /   0

     iteration # 10     ecut=    60.00 Ry     beta= 0.40
     Davidson diagonalization with overlap

---- Real-time Memory Report at c_bands before calling an iterative solver
           936 MiB given to the printing process from OS
           473 MiB allocation reported by mallinfo(arena+hblkhd)
        831323 MiB available memory on the node where the printing process lives
     GPU memory used/free/total (MiB): 1861 / 94906 / 96768
------------------
     ethr =  5.81E-11,  avg # of iterations =  1.3

     negative rho (up, down):  4.807E-05 0.000E+00

     total cpu time spent up to now is       13.6 secs

     total energy              =     -53.39712867 Ry
     estimated scf accuracy    <       0.00000001 Ry
[tb_dev] Currently allocated     3.05E-05 Mbytes, locked:    0 /   2
[tb_pin] Currently allocated     0.00E+00 Mbytes, locked:    0 /   0

     iteration # 11     ecut=    60.00 Ry     beta= 0.40
     Davidson diagonalization with overlap

---- Real-time Memory Report at c_bands before calling an iterative solver
           936 MiB given to the printing process from OS
           473 MiB allocation reported by mallinfo(arena+hblkhd)
        742810 MiB available memory on the node where the printing process lives
     GPU memory used/free/total (MiB): 89465 / 7302 / 96768
------------------
     ethr =  5.81E-11,  avg # of iterations =  1.4

     negative rho (up, down):  4.809E-05 0.000E+00

     total cpu time spent up to now is       14.0 secs

     total energy              =     -53.39712867 Ry
     estimated scf accuracy    <          6.3E-09 Ry
[tb_dev] Currently allocated     3.05E-05 Mbytes, locked:    0 /   2
[tb_pin] Currently allocated     0.00E+00 Mbytes, locked:    0 /   0

     iteration # 12     ecut=    60.00 Ry     beta= 0.40
     Davidson diagonalization with overlap

---- Real-time Memory Report at c_bands before calling an iterative solver
           936 MiB given to the printing process from OS
           473 MiB allocation reported by mallinfo(arena+hblkhd)
        567442 MiB available memory on the node where the printing process lives
     GPU memory used/free/total (MiB): 89465 / 7302 / 96768
------------------
     ethr =  3.93E-11,  avg # of iterations =  3.6

     negative rho (up, down):  4.812E-05 0.000E+00

     total cpu time spent up to now is       14.4 secs

     End of self-consistent calculation

          k = 0.0000 0.0000 0.0000 (  8821 PWs)   bands (ev):

   -21.2928 -20.8990  -9.5970  -7.9136  -5.1525  -5.1525  -4.9038  -4.9038

     occupation numbers 
     1.0000   1.0000   1.0000   1.0000   1.0000   1.0000   1.0000   1.0000

          k = 0.0000 0.0776 0.0000 (  8883 PWs)   bands (ev):

   -21.2079 -20.8163  -9.4819  -7.8081  -5.5115  -5.3168  -5.2627  -5.0673

     occupation numbers 
     1.0000   1.0000   1.0000   1.0000   1.0000   1.0000   1.0000   1.0000

          k = 0.0000 0.1552 0.0000 (  8887 PWs)   bands (ev):

   -20.9561 -20.5712  -9.1400  -7.4996  -6.4643  -6.2137  -5.7455  -5.4942

     occupation numbers 
     1.0000   1.0000   1.0000   1.0000   1.0000   1.0000   1.0000   1.0000

          k = 0.0000 0.2327 0.0000 (  8918 PWs)   bands (ev):

   -20.5473 -20.1737  -8.5894  -7.7896  -7.5273  -6.9494  -6.3022  -6.0490

     occupation numbers 
     1.0000   1.0000   1.0000   1.0000   1.0000   1.0000   1.0000   1.0000

          k = 0.0000 0.3103 0.0000 (  8958 PWs)   bands (ev):

   -20.0022 -19.6452  -9.2285  -8.9748  -7.7885  -6.8613  -6.6064  -6.2886

     occupation numbers 
     1.0000   1.0000   1.0000   1.0000   1.0000   1.0000   1.0000   1.0000

          k = 0.0000 0.3879 0.0000 (  8954 PWs)   bands (ev):

   -19.3644 -19.0308 -10.6144 -10.3451  -7.3367  -7.0807  -6.8733  -5.5087

     occupation numbers 
     1.0000   1.0000   1.0000   1.0000   1.0000   1.0000   1.0000   1.0000

          k = 0.0000 0.4655 0.0000 (  8964 PWs)   bands (ev):

   -18.7274 -18.4256 -11.7784 -11.5028  -7.6768  -7.4201  -5.8794  -4.7681

     occupation numbers 
     1.0000   1.0000   1.0000   1.0000   1.0000   1.0000   1.0000   1.0000

          k = 0.0000 0.5431 0.0000 (  8990 PWs)   bands (ev):

   -18.2835 -18.0146 -12.4852 -12.2105  -7.8531  -7.5960  -5.0607  -4.3548

     occupation numbers 
     1.0000   1.0000   1.0000   1.0000   1.0000   1.0000   1.0000   1.0000

          k = 0.0672 0.1164 0.0000 (  8878 PWs)   bands (ev):

   -21.0396 -20.6524  -9.2534  -7.6004  -6.1359  -5.8910  -5.6408  -5.3939

     occupation numbers 
     1.0000   1.0000   1.0000   1.0000   1.0000   1.0000   1.0000   1.0000

          k = 0.0672 0.1940 0.0000 (  8901 PWs)   bands (ev):

   -20.7089 -20.3307  -8.8045  -7.3001  -7.1257  -6.9270  -6.1937  -5.9444

     occupation numbers 
     1.0000   1.0000   1.0000   1.0000   1.0000   1.0000   1.0000   1.0000

          k = 0.0672 0.2715 0.0000 (  8931 PWs)   bands (ev):

   -20.2307 -19.8664  -8.5619  -8.3568  -8.0548  -6.8020  -6.5787  -6.5369

     occupation numbers 
     1.0000   1.0000   1.0000   1.0000   1.0000   1.0000   1.0000   1.0000

          k = 0.0672 0.3491 0.0000 (  8962 PWs)   bands (ev):

   -19.6353 -19.2907  -9.9378  -9.6779  -7.3496  -7.2744  -7.0892  -5.8357

     occupation numbers 
     1.0000   1.0000   1.0000   1.0000   1.0000   1.0000   1.0000   1.0000

          k = 0.0672 0.4267 0.0000 (  8970 PWs)   bands (ev):

   -18.9862 -18.6690 -11.2088 -10.9379  -7.7735  -7.5169  -6.3005  -5.0548

     occupation numbers 
     1.0000   1.0000   1.0000   1.0000   1.0000   1.0000   1.0000   1.0000

          k = 0.0672 0.5043 0.0000 (  8980 PWs)   bands (ev):

   -18.4199 -18.1370 -12.1609 -11.8866  -8.0398  -7.7818  -5.3504  -4.4413

     occupation numbers 
     1.0000   1.0000   1.0000   1.0000   1.0000   1.0000   1.0000   1.0000

          k = 0.0672-0.5819 0.0000 (  9002 PWs)   bands (ev):

   -18.1768 -17.9146 -12.5304 -12.2573  -8.1304  -7.8720  -4.8476  -4.2631

     occupation numbers 
     1.0000   1.0000   1.0000   1.0000   1.0000   1.0000   1.0000   1.0000

          k = 0.1344 0.2327 0.0000 (  8950 PWs)   bands (ev):

   -20.3082 -19.9414  -8.3230  -8.1720  -7.9153  -6.8999  -6.6799  -6.6324

     occupation numbers 
     1.0000   1.0000   1.0000   1.0000   1.0000   1.0000   1.0000   1.0000

          k = 0.1344 0.3103 0.0000 (  8986 PWs)   bands (ev):

   -19.7757 -19.4257  -9.3692  -9.1303  -7.6116  -7.4847  -7.3485  -6.0052

     occupation numbers 
     1.0000   1.0000   1.0000   1.0000   1.0000   1.0000   1.0000   1.0000

          k = 0.1344 0.3879 0.0000 (  8993 PWs)   bands (ev):

   -19.1561 -18.8293 -10.5782 -10.3226  -8.1843  -7.9304  -6.5671  -5.2475

     occupation numbers 
     1.0000   1.0000   1.0000   1.0000   1.0000   1.0000   1.0000   1.0000

          k = 0.1344 0.4655 0.0000 (  9009 PWs)   bands (ev):

   -18.5431 -18.2469 -11.6349 -11.3679  -8.5746  -8.3156  -5.5964  -4.5325

     occupation numbers 
     1.0000   1.0000   1.0000   1.0000   1.0000   1.0000   1.0000   1.0000

          k = 0.1344-0.6207 0.0000 (  9016 PWs)   bands (ev):

   -18.1213 -17.8555 -12.2857 -12.0153  -8.7715  -8.5102  -4.8022  -4.1350

     occupation numbers 
     1.0000   1.0000   1.0000   1.0000   1.0000   1.0000   1.0000   1.0000

          k = 0.2016 0.3491 0.0000 (  8984 PWs)   bands (ev):

   -19.2151 -18.8850 -10.2272  -9.9935  -8.4664  -8.2212  -6.6582  -5.3151

     occupation numbers 
     1.0000   1.0000   1.0000   1.0000   1.0000   1.0000   1.0000   1.0000

          k = 0.2016 0.4267 0.0000 (  9013 PWs)   bands (ev):

   -18.6149 -18.3113 -11.1064 -10.8634  -9.1337  -8.8820  -5.7331  -4.5924

     occupation numbers 
     1.0000   1.0000   1.0000   1.0000   1.0000   1.0000   1.0000   1.0000

          k = 0.2016-0.6595 0.0000 (  9020 PWs)   bands (ev):

   -18.1055 -17.8321 -11.8314 -11.5723  -9.5284  -9.2679  -4.8409  -4.0347

     occupation numbers 
     1.0000   1.0000   1.0000   1.0000   1.0000   1.0000   1.0000   1.0000

          k = 0.2016-0.5819 0.0000 (  9072 PWs)   bands (ev):

   -17.8930 -17.6360 -12.1231 -11.8576  -9.6568  -9.3928  -4.3764  -3.8746

     occupation numbers 
     1.0000   1.0000   1.0000   1.0000   1.0000   1.0000   1.0000   1.0000

          k = 0.2688-0.6982 0.0000 (  9020 PWs)   bands (ev):

   -18.1041 -17.8272 -11.5091 -11.2753  -9.9457  -9.6981  -4.8643  -4.0012

     occupation numbers 
     1.0000   1.0000   1.0000   1.0000   1.0000   1.0000   1.0000   1.0000

          k = 0.2688-0.6207 0.0000 (  9046 PWs)   bands (ev):

   -17.7735 -17.5179 -11.7586 -11.5114 -10.4112 -10.1584  -4.1824  -3.6884

     occupation numbers 
     1.0000   1.0000   1.0000   1.0000   1.0000   1.0000   1.0000   1.0000

          k = 0.3359-0.5819 0.0000 (  9048 PWs)   bands (ev):

   -17.6482 -17.3990 -11.5562 -11.3537 -10.8642 -10.6596  -3.8821  -3.5879

     occupation numbers 
     1.0000   1.0000   1.0000   1.0000   1.0000   1.0000   1.0000   1.0000

     highest occupied level (ev):    -3.5879

!    total energy              =     -53.39712867 Ry
     estimated scf accuracy    <          6.0E-11 Ry

     The total energy is the sum of the following terms:
     one-electron contribution =   -1038.47088586 Ry
     hartree contribution      =     522.58844840 Ry
     xc contribution           =     -16.79157098 Ry
     ewald contribution        =     479.29103512 Ry
     DFT-D3 Dispersion         =      -0.01415536 Ry

     convergence has been achieved in  12 iterations

     negative rho (up, down):  4.812E-05 0.000E+00

     Forces acting on atoms (cartesian axes, Ry/au):

     atom    1 type  1   force =     0.00000000    0.00000000   -0.00193921
     atom    2 type  1   force =     0.00000000    0.00000000    0.00161064
     atom    3 type  2   force =     0.00000000    0.00000000   -0.00311354
     atom    4 type  2   force =     0.00000000    0.00000000    0.00344211
     The non-local contrib.  to forces
     atom    1 type  1   force =     0.00000000   -0.00000000    0.00058630
     atom    2 type  1   force =     0.00000000   -0.00000000   -0.00295835
     atom    3 type  2   force =    -0.00000000    0.00000000   -0.00786799
     atom    4 type  2   force =     0.00000000    0.00000000    0.00082205
     The ionic contribution  to forces
     atom    1 type  1   force =    -0.00000000    0.00000001  -12.11966070
     atom    2 type  1   force =     0.00000000    0.00000001   12.12428094
     atom    3 type  2   force =     0.00000000   -0.00000001  -20.26217425
     atom    4 type  2   force =    -0.00000000   -0.00000001   20.25755400
     The local contribution  to forces
     atom    1 type  1   force =     0.00000000   -0.00000001   12.11661791
     atom    2 type  1   force =    -0.00000000   -0.00000001  -12.11962264
     atom    3 type  2   force =     0.00000000    0.00000001   20.26605262
     atom    4 type  2   force =    -0.00000000    0.00000000  -20.25371809
     The core correction contribution to forces
     atom    1 type  1   force =     0.00000000   -0.00000000   -0.00011242
     atom    2 type  1   force =    -0.00000000   -0.00000000    0.00015723
     atom    3 type  2   force =    -0.00000000    0.00000000    0.00011327
     atom    4 type  2   force =     0.00000000    0.00000000   -0.00006620
     The Hubbard contrib.    to forces
     atom    1 type  1   force =     0.00000000    0.00000000    0.00000000
     atom    2 type  1   force =     0.00000000    0.00000000    0.00000000
     atom    3 type  2   force =     0.00000000    0.00000000    0.00000000
     atom    4 type  2   force =     0.00000000    0.00000000    0.00000000
     The SCF correction term to forces
     atom    1 type  1   force =     0.00000000    0.00000000   -0.00000307
     atom    2 type  1   force =    -0.00000000    0.00000000    0.00000155
     atom    3 type  2   force =    -0.00000000    0.00000000   -0.00000671
     atom    4 type  2   force =     0.00000000    0.00000000    0.00000360

     DFT-D3 dispersion contribution to forces:
     atom    1 type  1   force =     0.00000000   -0.00000000    0.00063253
     atom    2 type  1   force =     0.00000000   -0.00000000   -0.00024833
     atom    3 type  2   force =     0.00000000    0.00000000    0.00076927
     atom    4 type  2   force =    -0.00000000    0.00000000   -0.00115348

     Total force =     0.005282     Total SCF correction =     0.000008

     DFT-D3 dispersion Force =     0.001544


     Computing stress (Cartesian axis) and pressure


     negative rho (up, down):  4.812E-05 0.000E+00
          total   stress  (Ry/bohr**3)                   (kbar)     P=      -18.67
  -0.00020098  -0.00000000   0.00000000          -29.56       -0.00        0.00
  -0.00000000  -0.00020098   0.00000000           -0.00      -29.56        0.00
   0.00000000   0.00000000   0.00002130            0.00        0.00        3.13

     kinetic stress (kbar)   2596.54     -0.00      0.00
                               -0.00   2596.54      0.00
                                0.00      0.00   2895.08

     local   stress (kbar)-138348.12      0.00      0.00
                                0.00-138348.12      0.00
                                0.00      0.00 137094.47

     nonloc. stress (kbar)    833.86     -0.00      0.00
                               -0.00    833.86      0.00
                                0.00      0.00    805.94

     hartree stress (kbar)  67730.98      0.00     -0.00
                                0.00  67730.98     -0.00
                               -0.00     -0.00 -67181.85

     exc-cor stress (kbar)   -334.90     -0.00     -0.00
                               -0.00   -334.90      0.00
                               -0.00      0.00   -344.89

     corecor stress (kbar)   -303.27      0.00      0.00
                                0.00   -303.27      0.00
                                0.00      0.00   -294.19

     ewald   stress (kbar)  67796.68     -0.00     -0.00
                               -0.00  67796.68     -0.00
                               -0.00     -0.00 -72970.38

     hubbard stress (kbar)      0.00      0.00      0.00
                                0.00      0.00      0.00
                                0.00      0.00      0.00

     DFT-D   stress (kbar)     -1.34      0.00     -0.00
                                0.00     -1.34     -0.00
                               -0.00     -0.00     -1.04

     XDM     stress (kbar)      0.00      0.00      0.00
                                0.00      0.00      0.00
                                0.00      0.00      0.00

     dft-nl  stress (kbar)      0.00      0.00      0.00
                                0.00      0.00      0.00
                                0.00      0.00      0.00

     TS-vdW  stress (kbar)      0.00      0.00      0.00
                                0.00      0.00      0.00
                                0.00      0.00      0.00

     MDB     stress (kbar)      0.00      0.00      0.00
                                0.00      0.00      0.00
                                0.00      0.00      0.00

     3D-RISM stress (kbar)      0.00      0.00      0.00
                                0.00      0.00      0.00
                                0.00      0.00      0.00

     Energy error            =      4.6E-03 Ry
     Gradient error          =      3.4E-03 Ry/Bohr
     Cell gradient error     =      3.0E+01 kbar

     number of scf cycles    =   2
     number of bfgs steps    =   1

     enthalpy           old  =     -53.3925453376 Ry
     enthalpy           new  =     -53.3971286736 Ry

     CASE: enthalpy          _new < enthalpy          _old

     new trust radius        =       0.0578150247 bohr
     new conv_thr            =       0.0000000003 Ry

     new unit-cell volume =   1106.56720 a.u.^3 (   163.97634 Ang^3 )
     density =      0.50264 g/cm^3

CELL_PARAMETERS (angstrom)
   2.512260404  -0.000000000   0.000000000
   1.256130202   2.175681327   0.000000000
   0.000000000   0.000000000  30.000000000

ATOMIC_POSITIONS (crystal)
B               -0.0000000000        0.0000000000        0.4499236969
B                0.3333333333        0.3333333333        0.5500489167
N                0.3333333333        0.3333333333        0.4498332629
N                0.6666666667        0.6666666667        0.5501941236



     Writing config-only to output data dir ./out/BN_rel.save/ :
     XML data file
     NEW-OLD atomic charge density approx. for the potential
     New effective cutoffs (rho, wfc):  495.93   62.00

     negative rho (up, down):  5.820E-05 0.000E+00

     total cpu time spent up to now is       14.9 secs

     per-process dynamical memory:   484.8 Mb

     Self-consistent Calculation
[tb_dev] Currently allocated     0.00E+00 Mbytes, locked:    0 /   0
[tb_pin] Currently allocated     0.00E+00 Mbytes, locked:    0 /   0

     iteration #  1     ecut=    60.00 Ry     beta= 0.40
     Davidson diagonalization with overlap

---- Real-time Memory Report at c_bands before calling an iterative solver
           936 MiB given to the printing process from OS
           473 MiB allocation reported by mallinfo(arena+hblkhd)
        831269 MiB available memory on the node where the printing process lives
     GPU memory used/free/total (MiB): 1829 / 94938 / 96768
------------------
     ethr =  1.00E-06,  avg # of iterations =  4.8

     negative rho (up, down):  5.812E-05 0.000E+00

     total cpu time spent up to now is       15.3 secs

     total energy              =     -53.39977677 Ry
     estimated scf accuracy    <       0.00035144 Ry
[tb_dev] Currently allocated     3.05E-05 Mbytes, locked:    0 /   2
[tb_pin] Currently allocated     0.00E+00 Mbytes, locked:    0 /   0

     iteration #  2     ecut=    60.00 Ry     beta= 0.40
     Davidson diagonalization with overlap

---- Real-time Memory Report at c_bands before calling an iterative solver
           936 MiB given to the printing process from OS
           473 MiB allocation reported by mallinfo(arena+hblkhd)
        831708 MiB available memory on the node where the printing process lives
     GPU memory used/free/total (MiB): 1809 / 94958 / 96768
------------------
     ethr =  2.20E-06,  avg # of iterations =  2.0

     negative rho (up, down):  5.907E-05 0.000E+00

     total cpu time spent up to now is       15.6 secs

     total energy              =     -53.39978892 Ry
     estimated scf accuracy    <       0.00005468 Ry
[tb_dev] Currently allocated     3.05E-05 Mbytes, locked:    0 /   2
[tb_pin] Currently allocated     0.00E+00 Mbytes, locked:    0 /   0

     iteration #  3     ecut=    60.00 Ry     beta= 0.40
     Davidson diagonalization with overlap

---- Real-time Memory Report at c_bands before calling an iterative solver
           938 MiB given to the printing process from OS
           473 MiB allocation reported by mallinfo(arena+hblkhd)
        831643 MiB available memory on the node where the printing process lives
     GPU memory used/free/total (MiB): 1809 / 94958 / 96768
------------------
     ethr =  3.42E-07,  avg # of iterations =  3.9

     negative rho (up, down):  5.982E-05 0.000E+00

     total cpu time spent up to now is       15.9 secs

     total energy              =     -53.39980513 Ry
     estimated scf accuracy    <       0.00001557 Ry
[tb_dev] Currently allocated     3.05E-05 Mbytes, locked:    0 /   2
[tb_pin] Currently allocated     0.00E+00 Mbytes, locked:    0 /   0

     iteration #  4     ecut=    60.00 Ry     beta= 0.40
     Davidson diagonalization with overlap

---- Real-time Memory Report at c_bands before calling an iterative solver
           938 MiB given to the printing process from OS
           473 MiB allocation reported by mallinfo(arena+hblkhd)
        831697 MiB available memory on the node where the printing process lives
     GPU memory used/free/total (MiB): 1809 / 94958 / 96768
------------------
     ethr =  9.73E-08,  avg # of iterations =  3.1

     negative rho (up, down):  6.046E-05 0.000E+00

     total cpu time spent up to now is       16.2 secs

     total energy              =     -53.39980843 Ry
     estimated scf accuracy    <       0.00000271 Ry
[tb_dev] Currently allocated     3.05E-05 Mbytes, locked:    0 /   2
[tb_pin] Currently allocated     0.00E+00 Mbytes, locked:    0 /   0

     iteration #  5     ecut=    60.00 Ry     beta= 0.40
     Davidson diagonalization with overlap

---- Real-time Memory Report at c_bands before calling an iterative solver
           938 MiB given to the printing process from OS
           473 MiB allocation reported by mallinfo(arena+hblkhd)
        831641 MiB available memory on the node where the printing process lives
     GPU memory used/free/total (MiB): 1809 / 94958 / 96768
------------------
     ethr =  1.69E-08,  avg # of iterations =  2.6

     negative rho (up, down):  6.085E-05 0.000E+00

     total cpu time spent up to now is       16.5 secs

     total energy              =     -53.39980789 Ry
     estimated scf accuracy    <       0.00000178 Ry
[tb_dev] Currently allocated     3.05E-05 Mbytes, locked:    0 /   2
[tb_pin] Currently allocated     0.00E+00 Mbytes, locked:    0 /   0

     iteration #  6     ecut=    60.00 Ry     beta= 0.40
     Davidson diagonalization with overlap

---- Real-time Memory Report at c_bands before calling an iterative solver
           938 MiB given to the printing process from OS
           473 MiB allocation reported by mallinfo(arena+hblkhd)
        831638 MiB available memory on the node where the printing process lives
     GPU memory used/free/total (MiB): 1809 / 94958 / 96768
------------------
     ethr =  1.11E-08,  avg # of iterations =  2.7

     negative rho (up, down):  6.109E-05 0.000E+00

     total cpu time spent up to now is       16.8 secs

     total energy              =     -53.39980836 Ry
     estimated scf accuracy    <       0.00000004 Ry
[tb_dev] Currently allocated     3.05E-05 Mbytes, locked:    0 /   2
[tb_pin] Currently allocated     0.00E+00 Mbytes, locked:    0 /   0

     iteration #  7     ecut=    60.00 Ry     beta= 0.40
     Davidson diagonalization with overlap

---- Real-time Memory Report at c_bands before calling an iterative solver
           938 MiB given to the printing process from OS
           473 MiB allocation reported by mallinfo(arena+hblkhd)
        831595 MiB available memory on the node where the printing process lives
     GPU memory used/free/total (MiB): 1810 / 94957 / 96768
------------------
     ethr =  2.57E-10,  avg # of iterations =  8.0

     negative rho (up, down):  6.124E-05 0.000E+00

     total cpu time spent up to now is       17.4 secs

     total energy              =     -53.39980837 Ry
     estimated scf accuracy    <       0.00000041 Ry
[tb_dev] Currently allocated     3.05E-05 Mbytes, locked:    0 /   2
[tb_pin] Currently allocated     0.00E+00 Mbytes, locked:    0 /   0

     iteration #  8     ecut=    60.00 Ry     beta= 0.40
     Davidson diagonalization with overlap

---- Real-time Memory Report at c_bands before calling an iterative solver
           938 MiB given to the printing process from OS
           473 MiB allocation reported by mallinfo(arena+hblkhd)
        831588 MiB available memory on the node where the printing process lives
     GPU memory used/free/total (MiB): 1810 / 94957 / 96768
------------------
     ethr =  2.57E-10,  avg # of iterations =  4.9

     negative rho (up, down):  6.133E-05 0.000E+00

     total cpu time spent up to now is       17.7 secs

     total energy              =     -53.39980838 Ry
     estimated scf accuracy    <       0.00000007 Ry
[tb_dev] Currently allocated     3.05E-05 Mbytes, locked:    0 /   2
[tb_pin] Currently allocated     0.00E+00 Mbytes, locked:    0 /   0

     iteration #  9     ecut=    60.00 Ry     beta= 0.40
     Davidson diagonalization with overlap

---- Real-time Memory Report at c_bands before calling an iterative solver
           938 MiB given to the printing process from OS
           473 MiB allocation reported by mallinfo(arena+hblkhd)
        831571 MiB available memory on the node where the printing process lives
     GPU memory used/free/total (MiB): 1810 / 94957 / 96768
------------------
     ethr =  2.57E-10,  avg # of iterations =  2.9

     negative rho (up, down):  6.139E-05 0.000E+00

     total cpu time spent up to now is       18.0 secs

     total energy              =     -53.39980839 Ry
     estimated scf accuracy    <          4.0E-09 Ry
[...]
[tb_pin] Currently allocated     0.00E+00 Mbytes, locked:    0 /   0

     iteration # 32     ecut=    60.00 Ry     beta= 0.40
     Davidson diagonalization with overlap

---- Real-time Memory Report at c_bands before calling an iterative solver
           943 MiB given to the printing process from OS
           466 MiB allocation reported by mallinfo(arena+hblkhd)
        831501 MiB available memory on the node where the printing process lives
     GPU memory used/free/total (MiB): 1823 / 94944 / 96768
------------------
     ethr =  1.44E-10,  avg # of iterations =  2.0

     negative rho (up, down):  3.558E-05 0.000E+00

     total cpu time spent up to now is       76.3 secs

     total energy              =     -53.40095488 Ry
     estimated scf accuracy    <          1.8E-09 Ry
[tb_dev] Currently allocated     3.05E-05 Mbytes, locked:    0 /   2
[tb_pin] Currently allocated     0.00E+00 Mbytes, locked:    0 /   0

     iteration # 33     ecut=    60.00 Ry     beta= 0.40
     Davidson diagonalization with overlap

---- Real-time Memory Report at c_bands before calling an iterative solver
           943 MiB given to the printing process from OS
           466 MiB allocation reported by mallinfo(arena+hblkhd)
        831501 MiB available memory on the node where the printing process lives
     GPU memory used/free/total (MiB): 1823 / 94944 / 96768
------------------
     ethr =  1.13E-11,  avg # of iterations =  5.6

     negative rho (up, down):  3.558E-05 0.000E+00

     total cpu time spent up to now is       76.7 secs

     total energy              =     -53.40095488 Ry
     estimated scf accuracy    <          3.9E-10 Ry
[tb_dev] Currently allocated     3.05E-05 Mbytes, locked:    0 /   2
[tb_pin] Currently allocated     0.00E+00 Mbytes, locked:    0 /   0

     iteration # 34     ecut=    60.00 Ry     beta= 0.40
     Davidson diagonalization with overlap

---- Real-time Memory Report at c_bands before calling an iterative solver
           943 MiB given to the printing process from OS
           466 MiB allocation reported by mallinfo(arena+hblkhd)
        831501 MiB available memory on the node where the printing process lives
     GPU memory used/free/total (MiB): 1823 / 94944 / 96768
------------------
     ethr =  2.47E-12,  avg # of iterations =  2.7

     negative rho (up, down):  3.558E-05 0.000E+00

     total cpu time spent up to now is       77.0 secs

     End of self-consistent calculation

          k = 0.0000 0.0000 0.0000 (  8581 PWs)   bands (ev):

   -21.3173 -21.1050  -9.4507  -8.2785  -4.9421  -4.9421  -4.8155  -4.8155

     occupation numbers 
     1.0000   1.0000   1.0000   1.0000   1.0000   1.0000   1.0000   1.0000

          k = 0.0000 0.0786 0.0000 (  8556 PWs)   bands (ev):

   -21.2305 -21.0196  -9.3322  -8.1668  -5.3070  -5.1805  -5.1129  -4.9860

     occupation numbers 
     1.0000   1.0000   1.0000   1.0000   1.0000   1.0000   1.0000   1.0000

          k = 0.0000 0.1572 0.0000 (  8542 PWs)   bands (ev):

   -20.9729 -20.7661  -8.9798  -7.8367  -6.2799  -6.1523  -5.5582  -5.4305

     occupation numbers 
     1.0000   1.0000   1.0000   1.0000   1.0000   1.0000   1.0000   1.0000

          k = 0.0000 0.2358 0.0000 (  8570 PWs)   bands (ev):

   -20.5541 -20.3543  -8.4078  -7.6292  -7.4987  -7.2632  -6.1356  -6.0070

     occupation numbers 
     1.0000   1.0000   1.0000   1.0000   1.0000   1.0000   1.0000   1.0000

          k = 0.0000 0.3144 0.0000 (  8594 PWs)   bands (ev):

   -19.9952 -19.8055  -9.0936  -8.9616  -7.6086  -6.7146  -6.5854  -6.5685

     occupation numbers 
     1.0000   1.0000   1.0000   1.0000   1.0000   1.0000   1.0000   1.0000

          k = 0.0000 0.3930 0.0000 (  8620 PWs)   bands (ev):

   -19.3398 -19.1641 -10.5175 -10.3783  -7.2066  -7.0769  -6.6666  -5.7285

     occupation numbers 
     1.0000   1.0000   1.0000   1.0000   1.0000   1.0000   1.0000   1.0000

          k = 0.0000 0.4716 0.0000 (  8638 PWs)   bands (ev):

   -18.6832 -18.5261 -11.7194 -11.5757  -7.5583  -7.4283  -5.6583  -4.9025

     occupation numbers 
     1.0000   1.0000   1.0000   1.0000   1.0000   1.0000   1.0000   1.0000

          k = 0.0000 0.5502 0.0000 (  8636 PWs)   bands (ev):

   -18.2241 -18.0864 -12.4555 -12.3110  -7.7405  -7.6104  -4.8465  -4.3855

     occupation numbers 
     1.0000   1.0000   1.0000   1.0000   1.0000   1.0000   1.0000   1.0000

          k = 0.0681 0.1179 0.0000 (  8567 PWs)   bands (ev):

   -21.0583 -20.8501  -9.0967  -7.9458  -5.9439  -5.8186  -5.4516  -5.3254

     occupation numbers 
     1.0000   1.0000   1.0000   1.0000   1.0000   1.0000   1.0000   1.0000

          k = 0.0681 0.1965 0.0000 (  8570 PWs)   bands (ev):

   -20.7198 -20.5171  -8.6329  -7.5203  -7.0316  -6.9054  -6.0237  -5.8967

     occupation numbers 
     1.0000   1.0000   1.0000   1.0000   1.0000   1.0000   1.0000   1.0000

          k = 0.0681 0.2751 0.0000 (  8578 PWs)   bands (ev):

   -20.2297 -20.0355  -8.4071  -8.2872  -7.9235  -6.8693  -6.6495  -6.5211

     occupation numbers 
     1.0000   1.0000   1.0000   1.0000   1.0000   1.0000   1.0000   1.0000

          k = 0.0681 0.3537 0.0000 (  8627 PWs)   bands (ev):

   -19.6183 -19.4360  -9.8234  -9.6891  -7.2156  -7.0986  -7.0603  -6.0839

     occupation numbers 
     1.0000   1.0000   1.0000   1.0000   1.0000   1.0000   1.0000   1.0000

          k = 0.0681 0.4323 0.0000 (  8645 PWs)   bands (ev):

   -18.9501 -18.7840 -11.1323 -10.9918  -7.6529  -7.5228  -6.0836  -5.2314

     occupation numbers 
     1.0000   1.0000   1.0000   1.0000   1.0000   1.0000   1.0000   1.0000

          k = 0.0681 0.5109 0.0000 (  8652 PWs)   bands (ev):

   -18.3650 -18.2190 -12.1199 -11.9762  -7.9274  -7.7967  -5.1290  -4.5184

     occupation numbers 
     1.0000   1.0000   1.0000   1.0000   1.0000   1.0000   1.0000   1.0000

          k = 0.0681-0.5895 0.0000 (  8620 PWs)   bands (ev):

   -18.1131 -17.9794 -12.5063 -12.3625  -8.0207  -7.8899  -4.6368  -4.2679

     occupation numbers 
     1.0000   1.0000   1.0000   1.0000   1.0000   1.0000   1.0000   1.0000

          k = 0.1361 0.2358 0.0000 (  8580 PWs)   bands (ev):

   -20.3091 -20.1134  -8.1246  -8.0226  -7.8889  -6.9696  -6.7514  -6.6253

     occupation numbers 
     1.0000   1.0000   1.0000   1.0000   1.0000   1.0000   1.0000   1.0000

          k = 0.1361 0.3144 0.0000 (  8607 PWs)   bands (ev):

   -19.7625 -19.5770  -9.2427  -9.1184  -7.4839  -7.3653  -7.2720  -6.2676

     occupation numbers 
     1.0000   1.0000   1.0000   1.0000   1.0000   1.0000   1.0000   1.0000

          k = 0.1361 0.3930 0.0000 (  8629 PWs)   bands (ev):

   -19.1250 -18.9533 -10.4876 -10.3554  -8.0686  -7.9391  -6.3549  -5.4493

     occupation numbers 
     1.0000   1.0000   1.0000   1.0000   1.0000   1.0000   1.0000   1.0000

          k = 0.1361 0.4716 0.0000 (  8635 PWs)   bands (ev):

   -18.4919 -18.3381 -11.5810 -11.4421  -8.4668  -8.3350  -5.3709  -4.6493

     occupation numbers 
     1.0000   1.0000   1.0000   1.0000   1.0000   1.0000   1.0000   1.0000

          k = 0.1361-0.6288 0.0000 (  8613 PWs)   bands (ev):

   -18.0545 -17.9185 -12.2600 -12.1182  -8.6677  -8.5350  -4.5844  -4.1510

     occupation numbers 
     1.0000   1.0000   1.0000   1.0000   1.0000   1.0000   1.0000   1.0000

          k = 0.2042 0.3537 0.0000 (  8624 PWs)   bands (ev):

   -19.1857 -19.0120 -10.1315 -10.0103  -8.3590  -8.2333  -6.4477  -5.5252

     occupation numbers 
     1.0000   1.0000   1.0000   1.0000   1.0000   1.0000   1.0000   1.0000

          k = 0.2042 0.4323 0.0000 (  8626 PWs)   bands (ev):

   -18.5658 -18.4076 -11.0455 -10.9195  -9.0355  -8.9066  -5.5064  -4.7301

     occupation numbers 
     1.0000   1.0000   1.0000   1.0000   1.0000   1.0000   1.0000   1.0000

          k = 0.2042-0.6681 0.0000 (  8620 PWs)   bands (ev):

   -18.0370 -17.8965 -11.8025 -11.6676  -9.4325  -9.2994  -4.6133  -4.0767

     occupation numbers 
     1.0000   1.0000   1.0000   1.0000   1.0000   1.0000   1.0000   1.0000

          k = 0.2042-0.5895 0.0000 (  8570 PWs)   bands (ev):

   -17.8155 -17.6845 -12.1088 -11.9702  -9.5612  -9.4265  -4.1606  -3.8508

     occupation numbers 
     1.0000   1.0000   1.0000   1.0000   1.0000   1.0000   1.0000   1.0000

          k = 0.2723-0.7074 0.0000 (  8642 PWs)   bands (ev):

   -18.0352 -17.8925 -11.4840 -11.3622  -9.8563  -9.7287  -4.6327  -4.0550

     occupation numbers 
     1.0000   1.0000   1.0000   1.0000   1.0000   1.0000   1.0000   1.0000

          k = 0.2723-0.6288 0.0000 (  8611 PWs)   bands (ev):

   -17.6897 -17.5594 -11.7608 -11.6323 -10.3171 -10.1869  -3.9635  -3.6556

     occupation numbers 
     1.0000   1.0000   1.0000   1.0000   1.0000   1.0000   1.0000   1.0000

          k = 0.3403-0.5895 0.0000 (  8610 PWs)   bands (ev):

   -17.5579 -17.4312 -11.6063 -11.4922 -10.7653 -10.6496  -3.6690  -3.5227

     occupation numbers 
     1.0000   1.0000   1.0000   1.0000   1.0000   1.0000   1.0000   1.0000

     highest occupied level (ev):    -3.5227

!    total energy              =     -53.40095488 Ry
     estimated scf accuracy    <          6.3E-12 Ry

     The total energy is the sum of the following terms:
     one-electron contribution =   -1033.92448901 Ry
     hartree contribution      =     520.38309965 Ry
     xc contribution           =     -16.88395873 Ry
     ewald contribution        =     477.03808601 Ry
     DFT-D3 Dispersion         =      -0.01369280 Ry

     convergence has been achieved in  34 iterations

     negative rho (up, down):  3.558E-05 0.000E+00

     Forces acting on atoms (cartesian axes, Ry/au):

     atom    1 type  1   force =     0.00000000    0.00000000   -0.00001271
     atom    2 type  1   force =     0.00000000    0.00000000   -0.00003212
     atom    3 type  2   force =     0.00000000    0.00000000   -0.00003887
     atom    4 type  2   force =     0.00000000    0.00000000    0.00008369
     The non-local contrib.  to forces
     atom    1 type  1   force =     0.00000000    0.00000000    0.00115673
     atom    2 type  1   force =    -0.00000000    0.00000000   -0.00218298
     atom    3 type  2   force =     0.00000000    0.00000000    0.00053498
     atom    4 type  2   force =     0.00000000   -0.00000000   -0.00375801
     The ionic contribution  to forces
     atom    1 type  1   force =    -0.00000000    0.00000001  -12.17333273
     atom    2 type  1   force =     0.00000000    0.00000001   12.17424450
     atom    3 type  2   force =     0.00000000   -0.00000001  -20.35463364
     atom    4 type  2   force =    -0.00000000   -0.00000001   20.35372187
     The local contribution  to forces
     atom    1 type  1   force =    -0.00000000   -0.00000001   12.17149603
     atom    2 type  1   force =    -0.00000000   -0.00000001  -12.17166843
     atom    3 type  2   force =     0.00000000    0.00000001   20.35325354
     atom    4 type  2   force =    -0.00000000    0.00000000  -20.34887959
     The core correction contribution to forces
     atom    1 type  1   force =    -0.00000000   -0.00000000   -0.00012712
     atom    2 type  1   force =    -0.00000000   -0.00000000    0.00015441
     atom    3 type  2   force =    -0.00000000    0.00000000    0.00001743
     atom    4 type  2   force =     0.00000000    0.00000000    0.00000300
     The Hubbard contrib.    to forces
     atom    1 type  1   force =     0.00000000    0.00000000    0.00000000
     atom    2 type  1   force =     0.00000000    0.00000000    0.00000000
     atom    3 type  2   force =     0.00000000    0.00000000    0.00000000
     atom    4 type  2   force =     0.00000000    0.00000000    0.00000000
     The SCF correction term to forces
     atom    1 type  1   force =    -0.00000000    0.00000000   -0.00000005
     atom    2 type  1   force =     0.00000000    0.00000000    0.00000009
     atom    3 type  2   force =     0.00000000   -0.00000000   -0.00000010
     atom    4 type  2   force =    -0.00000000   -0.00000000    0.00000007

     DFT-D3 dispersion contribution to forces:
     atom    1 type  1   force =     0.00000000   -0.00000000    0.00079443
     atom    2 type  1   force =    -0.00000000   -0.00000000   -0.00057970
     atom    3 type  2   force =    -0.00000000    0.00000000    0.00078892
     atom    4 type  2   force =     0.00000000    0.00000000   -0.00100365

     Total force =     0.000099     Total SCF correction =     0.000000

     DFT-D3 dispersion Force =     0.001611


     Computing stress (Cartesian axis) and pressure


     negative rho (up, down):  3.558E-05 0.000E+00
          total   stress  (Ry/bohr**3)                   (kbar)     P=       -0.26
  -0.00000065   0.00000000   0.00000000           -0.10        0.00        0.00
   0.00000000  -0.00000065   0.00000000            0.00       -0.10        0.00
   0.00000000   0.00000000  -0.00000402            0.00        0.00       -0.59

     kinetic stress (kbar)   2698.15     -0.00      0.00
                               -0.00   2698.15      0.00
                                0.00      0.00   2987.14

     local   stress (kbar)-141470.72      0.00      0.00
                                0.00-141470.72      0.00
                                0.00      0.00 140244.21

     nonloc. stress (kbar)    860.11     -0.00      0.00
                               -0.00    860.11      0.00
                                0.00      0.00    828.36

     hartree stress (kbar)  69227.85      0.00     -0.00
                                0.00  69227.85     -0.00
                               -0.00     -0.00 -68675.88

     exc-cor stress (kbar)   -346.85     -0.00     -0.00
                               -0.00   -346.85      0.00
                               -0.00      0.00   -357.74

     corecor stress (kbar)   -312.42      0.00      0.00
                                0.00   -312.42      0.00
                                0.00      0.00   -302.62

     ewald   stress (kbar)  69345.16     -0.00     -0.00
                               -0.00  69345.16     -0.00
                               -0.00     -0.00 -74722.76

     hubbard stress (kbar)      0.00      0.00      0.00
                                0.00      0.00      0.00
                                0.00      0.00      0.00

     DFT-D   stress (kbar)     -1.37      0.00      0.00
                                0.00     -1.37     -0.00
                                0.00     -0.00     -1.31

     XDM     stress (kbar)      0.00      0.00      0.00
                                0.00      0.00      0.00
                                0.00      0.00      0.00

     dft-nl  stress (kbar)      0.00      0.00      0.00
                                0.00      0.00      0.00
                                0.00      0.00      0.00

     TS-vdW  stress (kbar)      0.00      0.00      0.00
                                0.00      0.00      0.00
                                0.00      0.00      0.00

     MDB     stress (kbar)      0.00      0.00      0.00
                                0.00      0.00      0.00
                                0.00      0.00      0.00

     3D-RISM stress (kbar)      0.00      0.00      0.00
                                0.00      0.00      0.00
                                0.00      0.00      0.00


     Writing all to output data dir ./out/BN_rel.save/ :
     XML data file, charge density, pseudopotentials, collected wavefunctions
 
     init_run     :      0.72s CPU      2.48s WALL (       2 calls)
     electrons    :     66.16s CPU     69.20s WALL (      16 calls)
     update_pot   :      0.36s CPU      0.10s WALL (      14 calls)
     forces       :      1.22s CPU      1.37s WALL (      16 calls)
     force_dftd3  :      0.55s CPU      0.64s WALL (      16 calls)
     stress       :      2.61s CPU      3.31s WALL (      16 calls)
     stres_dftd3  :      0.48s CPU      0.64s WALL (      16 calls)

     Called by init_run:
     wfcinit      :      0.27s CPU      1.06s WALL (       2 calls)
     wfcinit:atom :      0.01s CPU      0.02s WALL (      54 calls)
     wfcinit:wfcr :      0.24s CPU      1.00s WALL (      54 calls)
     potinit      :      0.14s CPU      0.27s WALL (       2 calls)
     hinit0       :      0.20s CPU      0.95s WALL (       2 calls)

     Called by electrons:
     c_bands      :     47.03s CPU     57.12s WALL (     221 calls)
     sum_band     :      6.93s CPU      8.25s WALL (     221 calls)
     v_of_rho     :      2.85s CPU      0.93s WALL (     234 calls)
     v_h          :      2.39s CPU      0.19s WALL (     234 calls)
     v_xc         :      0.51s CPU      0.81s WALL (     266 calls)
     newd         :      2.88s CPU      0.71s WALL (     234 calls)
                                        0.70s GPU  (     234 calls)
     mix_rho      :      0.71s CPU      0.98s WALL (     221 calls)
     energy_dftd3 :      0.27s CPU      0.42s WALL (      16 calls)

     Called by c_bands:
     init_us_2    :      2.41s CPU      2.87s WALL (   12852 calls)
     cegterg      :     42.86s CPU     50.79s WALL (    5967 calls)

     Called by sum_band:
     sum_band:wei :      0.00s CPU      0.00s WALL (     221 calls)
     sum_band:loo :      5.70s CPU      6.67s WALL (     221 calls)
     sum_band:buf :      0.17s CPU      0.20s WALL (    5967 calls)
     sum_band:ini :      1.14s CPU      1.33s WALL (    5967 calls)
     sum_band:cal :      1.14s CPU      1.33s WALL (    5967 calls)
     sum_band:bec :      1.10s CPU      1.29s WALL (    5967 calls)
     addusdens    :      0.59s CPU      0.66s WALL (     221 calls)
                                        0.66s GPU  (     221 calls)
     addusd:skk   :      0.02s CPU      0.03s WALL (     442 calls)
                                        0.02s GPU  (     442 calls)

     Called by *egterg:
     cdiaghg      :      5.50s CPU      7.01s WALL (   24767 calls)
                                        6.83s GPU  (   24767 calls)
     cegterg:over :      5.74s CPU      6.77s WALL (   19259 calls)
     cegterg:upda :      1.63s CPU      1.93s WALL (   19259 calls)
     cegterg:last :      0.70s CPU      0.82s WALL (   16439 calls)
     h_psi        :     20.56s CPU     25.16s WALL (   25280 calls)
                                       24.98s GPU  (   25280 calls)
     s_psi        :      2.29s CPU      2.71s WALL (   25280 calls)
     g_psi        :      0.08s CPU      0.30s WALL (   19259 calls)
                                        0.16s GPU  (   19259 calls)

     Called by h_psi:
     h_psi:calbec :      4.19s CPU      5.30s WALL (   25280 calls)
                                        5.11s GPU  (   25280 calls)
     vloc_psi     :     12.85s CPU     15.95s WALL (   25280 calls)
                                       15.77s GPU  (   25280 calls)
     add_vuspsi   :      2.02s CPU      2.67s WALL (   25280 calls)
                                        2.49s GPU  (   25280 calls)

     General routines
     calbec       :      6.32s CPU      7.73s WALL (   38591 calls)
     fft          :      4.94s CPU      2.01s WALL (    3427 calls)
                                        1.66s GPU  (    3193 calls)
     ffts         :      0.93s CPU      0.34s WALL (     455 calls)
                                        0.25s GPU  (     221 calls)
     fftw         :      9.08s CPU     12.24s WALL (   56527 calls)
                                       11.84s GPU  (   56527 calls)
     interpolate  :      4.79s CPU      0.45s WALL (     234 calls)
 
     Parallel routines
 
     PWSCF        :   1m12.25s CPU   1m17.52s WALL

 
   This run was terminated on:  14:21:54   7Aug2025            

=------------------------------------------------------------------------------=
   JOB DONE.
=------------------------------------------------------------------------------=
Warning: ieee_inexact is signaling
FORTRAN STOP
Warning: ieee_inexact is signaling
FORTRAN STOP
Warning: ieee_inexact is signaling
FORTRAN STOP
Warning: ieee_divide_by_zero is signaling
Warning: ieee_inexact is signaling
FORTRAN STOP
