
45127 atoms 
3 atom types 


0.0 354.3652488059066 xlo xhi 
0.0 306.88930768430833 ylo yhi 
-100.0 100.0 zlo zhi 
118.5168051005316 0.0 0.0 xy xz yz 
 
Masses 

1 10.811 
2 14.0067 
3 12.01 
Atoms # full 
 
9 1 1 0.42 2.1599052305929516 1.8485201247987395 -0.15500000000000114
19 1 2 -0.42 2.896807880827082 3.721431811772228 -0.20059999999999434
33 1 1 0.42 4.369017968774023 7.479659651535805 -0.24340000000000828
47 1 2 -0.42 5.113020356418139 9.340206768302691 -0.2588000000000079
69 1 1 0.42 6.57509962783087 13.092388888704889 -0.29340000000000543
17503 1 2 -0.42 9.413998216710866 3.7085731497802557 -0.19899999999999807
17925 1 1 0.42 5.072466652790132 3.72529861704905 -0.18059999999999832
17929 1 1 0.42 7.977595625384165 5.593640722231119 -0.2125999999999948
17933 1 1 0.42 10.885058312404386 7.458023955344061 -0.23160000000000025
18143 1 2 -0.42 5.801351404088583 5.5992874854925105 -0.22180000000000177
18147 1 2 -0.42 8.714403106625822 7.465113098351568 -0.23199999999999932
18573 1 1 0.42 7.278170942490051 9.33575687334127 -0.2691999999999979
18577 1 1 0.42 10.19404642642157 11.211280188323153 -0.27199999999999136
18787 1 2 -0.42 8.016126496024738 11.209009207446286 -0.2961999999999989
17507 1 2 -0.42 12.322061428387663 5.571483314216312 -0.21219999999999573
18151 1 2 -0.42 11.627831100023142 9.329619087187583 -0.25560000000000116
18791 1 2 -0.42 10.933397278306904 13.085668012866604 -0.2837999999999994
17289 1 1 0.42 11.590885747235731 3.6979854686651468 -0.17940000000000111
16863 1 2 -0.42 13.036629833190224 1.8077437424867253 -0.12879999999999825
17285 1 1 0.42 8.682580524252561 1.828759522276947 -0.14999999999999147
17499 1 2 -0.42 6.507491486256762 1.8371222559113443 -0.1414000000000044
16025 1 1 0.42 21.71924378236525 1.758448112993395 -0.04059999999999775
16029 1 1 0.42 24.62681906034098 3.6286284851284933 -0.03140000000000498
16235 1 2 -0.42 19.552746857228172 1.7658441453085871 -0.09559999999999036
16239 1 2 -0.42 22.45241267915656 3.6305005099053678 -0.07800000000000296
16243 1 2 -0.42 25.365737325895477 5.497308168549014 -0.04779999999999518
16653 1 1 0.42 18.114904760776767 3.653056874020164 -0.13119999999999266
16657 1 1 0.42 21.012570611601195 5.523086870394497 -0.12019999999999698
16661 1 1 0.42 23.920870382821594 7.3862425462767005 -0.06439999999999202
16867 1 2 -0.42 15.941000416757598 3.6687082287120636 -0.16279999999999006
16871 1 2 -0.42 18.841397842929624 5.5318639045942675 -0.14740000000000464
16875 1 2 -0.42 21.745880661894784 7.402937324614728 -0.12600000000000477
16879 1 2 -0.42 24.655730277394614 9.258819723904814 -0.07019999999999982
17293 1 1 0.42 14.498135104022325 5.552640310724496 -0.20459999999999923
17297 1 1 0.42 17.402103323026267 7.418527301445091 -0.21179999999999666
17301 1 1 0.42 20.314537315961633 9.290828278696287 -0.1846000000000032
17305 1 1 0.42 23.226722660670696 11.144316941386435 -0.11220000000000141
17511 1 2 -0.42 15.227290547706115 7.425861955898744 -0.23160000000000025
17515 1 2 -0.42 18.142684497868306 9.294357505734656 -0.22939999999999827
17519 1 2 -0.42 21.052008728345154 11.164203368524378 -0.17660000000000764
17523 1 2 -0.42 23.958224618578825 13.02352292806053 -0.09619999999999607
17937 1 1 0.42 13.797831381940764 9.318448316387876 -0.24219999999999686
17941 1 1 0.42 16.704961036740205 11.181051591516248 -0.2506000000000057
17945 1 1 0.42 19.60950192894142 13.051357788267495 -0.20300000000000296
18155 1 2 -0.42 14.539743263481668 11.191117560808292 -0.25780000000000314
18159 1 2 -0.42 17.44416729812643 13.053229813044371 -0.25679999999999836
18581 1 1 0.42 13.103804428411305 13.078578869859093 -0.2680000000000007
16649 1 1 0.42 15.203752527058235 1.8019680857161071 -0.1092000000000013
14423 1 2 -0.42 39.10532163118184 1.6866851172844963 -0.08480000000000132
14813 1 1 0.42 34.75529893072312 1.7029870773086868 -0.029200000000003
14817 1 1 0.42 37.66727900430117 3.5704422723915483 -0.05320000000000391
15015 1 2 -0.42 32.58487495122493 1.7144371173783886 -0.02179999999999893
15019 1 2 -0.42 35.49448148874988 3.574186321945297 -0.03719999999999857
15023 1 2 -0.42 38.392580518503955 5.441208803104324 -0.04579999999999984
15417 1 1 0.42 31.149721052966726 3.5968654417831676 -0.012999999999991019
15421 1 1 0.42 34.0630453441557 5.463396900049899 -0.021000000000000796
15425 1 1 0.42 36.95377322118465 7.33014318083201 -0.029200000000003
15623 1 2 -0.42 28.975769420757718 3.6033101172445376 -0.02379999999999427
15627 1 2 -0.42 31.888756176077674 5.47373906971886 -0.01820000000000732
15631 1 2 -0.42 34.791250401566785 7.341590152008633 -0.02200000000000557
15635 1 2 -0.42 37.68833943111122 9.203978604621627 -0.05159999999999343
16033 1 1 0.42 27.539807000842984 5.490802115226108 -0.032200000000003115
16037 1 1 0.42 30.445375433764642 7.35184025488529 -0.007000000000005002
16041 1 1 0.42 33.35520490138738 9.219599270382759 -0.013599999999996726
16045 1 1 0.42 36.25666388257383 11.090734068264757 -0.038000000000010914
16247 1 2 -0.42 28.272795515061908 7.359451109715861 -0.02240000000000464
16251 1 2 -0.42 31.1756968457711 9.231567953382447 -0.009799999999998477
16255 1 2 -0.42 34.08883719888664 11.092851604487779 -0.03719999999999857
16259 1 2 -0.42 36.993110006068804 12.965950493938951 -0.037800000000004275
16665 1 1 0.42 26.828865565848226 9.251362313728086 -0.04779999999999518
16669 1 1 0.42 29.734616870193456 11.116819659417922 -0.02200000000000557
16673 1 1 0.42 32.64338845681792 12.979453623477063 -0.03880000000000905
16883 1 2 -0.42 27.56830257946222 11.119274773879395 -0.044799999999995066
16887 1 2 -0.42 30.46256747203131 12.990041304592172 -0.06040000000000134
17309 1 1 0.42 26.133167999433443 13.007533995130178 -0.05740000000000123
14225 1 1 0.42 41.27629588422275 1.6668416546496292 -0.1004000000000076
14821 1 1 0.42 40.56395535832745 5.433413814689142 -0.05100000000000193
15429 1 1 0.42 39.861783574373526 9.18869551709895 -0.016799999999989268
13085 1 1 0.42 54.28913299776308 1.6187029978462686 -0.3452000000000055
13275 1 2 -0.42 52.1211192945478 1.626025376727616 -0.3119999999999976
13649 1 1 0.42 47.77548965651511 1.6470043298009154 -0.21819999999999595
13653 1 1 0.42 50.67811318384465 3.5116115921084665 -0.2481999999999971
13657 1 1 0.42 53.59052145863595 5.382286056028936 -0.3096000000000032
13843 1 2 -0.42 45.605285762738454 1.6504905923362092 -0.19259999999999877
13847 1 2 -0.42 48.512256486503965 3.511672969970003 -0.22100000000000364
13851 1 2 -0.42 51.42298774849533 5.382592945336621 -0.2588000000000079
14229 1 1 0.42 44.17216276845774 3.5350579352155473 -0.13919999999998822
14233 1 1 0.42 47.08102146494406 5.3919530692209925 -0.1974000000000018
14237 1 1 0.42 49.985870737871835 7.26324131175683 -0.22360000000000468
14241 1 1 0.42 52.8873813923797 9.13781326988489 -0.20720000000000027
14427 1 2 -0.42 42.006181628448374 3.548561064753657 -0.09519999999999129
14431 1 2 -0.42 44.91657985825006 5.399349101536184 -0.14180000000000348
14435 1 2 -0.42 47.81317088016421 7.269440475772054 -0.21299999999999386
14439 1 2 -0.42 50.71810430002205 9.141864208746323 -0.19440000000000168
14825 1 1 0.42 43.473806040492676 7.280948824810215 -0.1004000000000076
14829 1 1 0.42 46.37952167126418 9.1553980272152 -0.1414000000000044
14833 1 1 0.42 49.28245334228232 11.023555998812661 -0.13539999999998997
14837 1 1 0.42 52.191416333529126 12.897237977948436 -0.13599999999999568
15027 1 2 -0.42 41.30214320480635 7.303597255717316 -0.06560000000000343
15031 1 2 -0.42 44.207037514138726 9.163990927830362 -0.10360000000000014
15035 1 2 -0.42 47.11286929139789 11.027729693397166 -0.11979999999999791
15039 1 2 -0.42 50.01530319183461 12.894598729902352 -0.11119999999999663
15639 1 2 -0.42 40.59590866475492 11.059369981019419 -0.003200000000006753
15433 1 1 0.42 42.76893918435034 11.053109439142661 -0.026800000000008595
15437 1 1 0.42 45.68200285710029 12.90988181742503 -0.05519999999999925
15643 1 2 -0.42 43.50667429663687 12.920285364955529 -0.014200000000002433
11993 1 1 0.42 67.31064317112714 1.5774233170696523 -0.7586000000000013
12175 1 2 -0.42 65.13872670949966 1.5865686184386447 -0.7103999999999928
12179 1 2 -0.42 68.05384901915265 3.4495892630254676 -0.7925999999999931
12533 1 1 0.42 60.803563290587604 1.597945005074502 -0.544399999999996
12537 1 1 0.42 63.70372996453031 3.4662840413634943 -0.6565999999999974
12541 1 1 0.42 66.6153844724505 5.329501095107235 -0.7339999999999947
12719 1 2 -0.42 58.62816717556239 1.598080036369883 -0.4789999999999992
12723 1 2 -0.42 61.53604692320902 3.4698746462634005 -0.5630000000000024
12727 1 2 -0.42 64.44230536096656 5.334718213337869 -0.6773999999999916
12731 1 2 -0.42 67.35206952583762 7.197628377773925 -0.7480000000000047
13089 1 1 0.42 57.19154319484655 3.4809226613400353 -0.4227999999999952
13093 1 1 0.42 60.095760773207815 5.347822386775989 -0.4887999999999977
13097 1 1 0.42 63.00448554569349 7.210793929073582 -0.5936000000000092
13101 1 1 0.42 65.91619812683417 9.082419749847872 -0.6569999999999965
13279 1 2 -0.42 55.024418367660196 3.496052304208872 -0.35360000000000014
13283 1 2 -0.42 57.926842786764944 5.355555997329633 -0.4329999999999927
13287 1 2 -0.42 60.839163359126694 7.222332967042512 -0.5142000000000024
13291 1 2 -0.42 63.74998232356316 9.087974446316958 -0.5835999999999899
13295 1 2 -0.42 66.6454782502044 10.951559767229922 -0.6606000000000023
13661 1 1 0.42 56.49596450077128 7.246853422726489 -0.3539999999999992
13665 1 1 0.42 59.402653154542215 9.106387804778018 -0.4350000000000023
13669 1 1 0.42 62.31935292287575 10.970740348960192 -0.5102000000000118
13673 1 1 0.42 65.22344368825088 12.84006449992685 -0.5576000000000079
13855 1 2 -0.42 54.32201547592856 7.255323567618574 -0.3050000000000068
13859 1 2 -0.42 57.23111831702406 9.118356487777707 -0.34839999999999804
13863 1 2 -0.42 60.14397458534175 10.98835579522127 -0.4531999999999954
13867 1 2 -0.42 63.04747869255497 12.842396858665252 -0.48740000000000805
14245 1 1 0.42 55.80262695951 11.001153079351704 -0.2533999999999992
14249 1 1 0.42 58.70804511311781 12.864738400264669 -0.3418000000000063
14443 1 2 -0.42 53.62768713417042 11.010728025751456 -0.19759999999999422
14447 1 2 -0.42 56.53725693148735 12.869464495603006 -0.25900000000000034
10949 1 1 0.42 80.34709831368433 1.5335504216431035 -1.0523999999999916
11123 1 2 -0.42 78.17182545612086 1.543180608118237 -1.0386000000000024
11127 1 2 -0.42 81.0822106490351 3.4168748628263206 -1.0892000000000053
11465 1 1 0.42 73.82257987037079 1.5511259722941837 -0.953400000000002
11469 1 1 0.42 76.72780365640111 3.4243015840722806 -1.0207999999999942
11473 1 1 0.42 79.64303737183535 5.2967866949080875 -1.0808000000000106
11643 1 2 -0.42 71.66287656556801 1.557027453680953 -0.8840000000000003
11647 1 2 -0.42 74.55425166287883 3.4200358226954686 -0.9984000000000037
11651 1 2 -0.42 77.47310962221613 5.300070410500309 -1.039199999999994
11655 1 2 -0.42 80.38331466959906 7.165957401220906 -1.0934000000000026
11997 1 1 0.42 70.22040733600753 3.4348278873258526 -0.843199999999996
12001 1 1 0.42 73.11795952920949 5.308325732877018 -0.9677999999999969
12005 1 1 0.42 76.03205548331475 7.177864706359056 -1.0311999999999983
12009 1 1 0.42 78.93858532454196 9.051669441217907 -1.0734000000000066
12183 1 2 -0.42 70.94959975693264 5.309246400800071 -0.8808000000000078
12187 1 2 -0.42 73.85733846957187 7.186181406597301 -0.9835999999999956
12191 1 2 -0.42 76.76742737049825 9.044426853556555 -1.0480000000000018
12195 1 2 -0.42 79.67772486097671 10.917894010176955 -1.0561999999999898
12545 1 1 0.42 69.52188231416677 7.1876237863434165 -0.8262
12549 1 1 0.42 72.42787408908949 9.065540837925235 -0.9114000000000004
12553 1 1 0.42 75.33152041645327 10.9291261588382 -0.9654000000000025
12557 1 1 0.42 78.23297773840663 12.798972021627922 -0.9993999999999943
12735 1 2 -0.42 70.25356121766602 9.066645639432899 -0.8404000000000025
12739 1 2 -0.42 73.1549912807433 10.942844110891688 -0.904200000000003
12743 1 2 -0.42 76.06067491200388 12.801611269674005 -0.9602000000000004
13105 1 1 0.42 68.81166442426637 10.950516343583795 -0.7436000000000007
13109 1 1 0.42 71.71467787186603 12.827144460073342 -0.8239999999999981
13299 1 2 -0.42 69.5479168913071 12.822111475427318 -0.7424000000000035
9953 1 1 0.42 93.40770244057481 1.4778837701222467 -1.0161999999999978
10119 1 2 -0.42 91.2319709229787 1.4844910969166898 -1.0232000000000028
10123 1 2 -0.42 94.14519103790518 3.3453389652051087 -1.0383999999999958
10445 1 1 0.42 86.86793443985563 1.511027815352152 -1.0764000000000067
10449 1 1 0.42 89.78917695737223 3.361450653858534 -1.0481999999999942
10453 1 1 0.42 92.70337957661765 5.222089837417728 -1.0499999999999972
10615 1 2 -0.42 84.69310720547935 1.5218119056241786 -1.093999999999994
10619 1 2 -0.42 87.61597103290217 3.369092197619874 -1.0799999999999983
10623 1 2 -0.42 90.52327123337808 5.23571572267891 -1.0549999999999926
10627 1 2 -0.42 93.44470930361376 7.092150522722829 -1.0570000000000022
10953 1 1 0.42 83.26058390623868 3.4042617122804955 -1.1063999999999936
10957 1 1 0.42 86.17320788164325 5.258977932201381 -1.085800000000006
10961 1 1 0.42 89.08428995339946 7.11795991349908 -1.0645999999999987
10965 1 1 0.42 92.00131682812132 8.979489076050557 -1.0614000000000061
11131 1 2 -0.42 84.00312487499535 5.270118014070321 -1.102800000000002
11135 1 2 -0.42 86.91805400226691 7.126215235875787 -1.1021999999999963
11139 1 2 -0.42 89.82886348537141 8.98449137176581 -1.058400000000006
11143 1 2 -0.42 92.74231233773017 10.846849135448036 -1.0544000000000011
11477 1 1 0.42 82.56294183460369 7.154755941490427 -1.0862000000000052
11481 1 1 0.42 85.47634802092195 9.01149763084203 -1.0882000000000005
11485 1 1 0.42 88.38894947813199 10.867073140824433 -1.051000000000002
11489 1 1 0.42 91.29959896354181 12.729522971298962 -1.0386000000000024
11659 1 2 -0.42 83.30222240602251 9.029604099995405 -1.0892000000000053
11663 1 2 -0.42 86.21097917806577 10.880729715016383 -1.0498000000000047
11667 1 2 -0.42 89.12267635204202 12.740386852790985 -1.0213999999999999
11671 1 2 -0.42 92.03082987353022 14.60004399056559 -1.002200000000002
12013 1 1 0.42 81.85806431197844 10.909454554215634 -1.049199999999999
12017 1 1 0.42 84.76686612041077 12.758861589113582 -1.0063999999999993
12199 1 2 -0.42 82.59388774818783 12.778103548705388 -1.0311999999999983
9957 1 1 0.42 96.31907013783132 3.3376053546514632 -0.9813999999999936
10457 1 1 0.42 95.6227507137475 7.087854072415248 -0.9932000000000016
10969 1 1 0.42 94.90495722965262 10.838471057348254 -0.9842000000000013
11493 1 1 0.42 94.20597710327095 14.595594095604168 -0.9703999999999979
9469 1 1 0.42 99.90640555330026 1.4531055274198157 -0.6858000000000004
9631 1 2 -0.42 97.7648210977375 1.4609618936965338 -0.9087999999999994
9635 1 2 -0.42 100.62237031355524 3.3244704922825754 -0.5490000000000066
9961 1 1 0.42 99.209286140782 5.201282742356731 -0.7259999999999991
9965 1 1 0.42 102.00441255506556 7.072908563131022 -0.16219999999999857
10127 1 2 -0.42 97.05648881024358 5.206714683102744 -0.9260000000000019
10131 1 2 -0.42 99.92289597210718 7.073890608915612 -0.5750000000000028
10461 1 1 0.42 98.51474683912323 8.948800145282124 -0.747799999999998
10465 1 1 0.42 101.35989564155797 10.818738074864152 -0.2904000000000053
10631 1 2 -0.42 96.35543226943966 8.956625822628077 -0.9394000000000062
10635 1 2 -0.42 99.24401748114593 10.819750809579512 -0.6337999999999937
10639 1 2 -0.42 102.08119958389827 12.69475241273833 -0.19440000000000168
10973 1 1 0.42 97.81184380649272 12.69576514745369 -0.7896000000000072
10977 1 1 0.42 100.68238957521845 14.557140865351323 -0.44880000000000564
11147 1 2 -0.42 95.6452250460688 12.709452410576407 -0.9361999999999995
11151 1 2 -0.42 98.5526307265184 14.566255477789545 -0.7560000000000002
9473 1 1 0.42 102.69217506577446 3.3280304082517134 -0.10360000000000014
10135 1 2 -0.42 102.72376097012169 8.943859227428407 -0.006200000000006867
87 1 2 -0.42 7.316996185151877 14.963247486209967 -0.2896000000000072
117 1 1 0.42 8.784291191525778 18.73154129526559 -0.30580000000000496
19209 1 1 0.42 9.4912835991586 14.966224312494505 -0.28879999999999484
139 1 2 -0.42 9.521700275920855 20.605131207609062 -0.325800000000001
19419 1 2 -0.42 10.228640287269803 16.84223865036868 -0.3102000000000089
177 1 1 0.42 10.991468917682724 24.35703712763434 -0.30920000000000414
203 1 2 -0.42 11.731682820808155 26.225594055331786 -0.27840000000000487
17949 1 1 0.42 22.520125103623943 14.911720771449774 -0.13800000000000523
18163 1 2 -0.42 20.354665319055922 14.917306156849628 -0.18959999999999866
18167 1 2 -0.42 23.259234655299693 16.782180412854864 -0.1448000000000036
18585 1 1 0.42 16.01039554283966 14.944926194541214 -0.2623999999999995
18589 1 1 0.42 18.91990406697099 16.80194408426973 -0.23080000000000211
18593 1 1 0.42 21.81626220337323 18.665468027321158 -0.1910000000000025
18795 1 2 -0.42 13.836709506784509 14.95582076496401 -0.2804000000000002
18799 1 2 -0.42 16.746058151737824 16.817104416069338 -0.25900000000000034
18803 1 2 -0.42 19.64314812941545 18.680229403020775 -0.2272000000000105
18807 1 2 -0.42 22.55549240515377 20.53789176029543 -0.18000000000000682
19213 1 1 0.42 12.401853796805444 16.840489381314885 -0.29760000000000275
19217 1 1 0.42 15.30157875862129 18.704289524743224 -0.2634000000000043
19221 1 1 0.42 18.21070281421261 20.574626410425243 -0.25739999999998986
19225 1 1 0.42 21.118278329254302 22.425721336515448 -0.1863999999999919
19423 1 2 -0.42 13.130302050708067 18.7149078947891 -0.3007999999999953
19427 1 2 -0.42 16.04314385997896 20.58285104387118 -0.277000000000001
19431 1 2 -0.42 18.95157530338367 22.438181042407436 -0.24340000000000828
19435 1 2 -0.42 21.85507087736701 24.303945277404956 -0.17719999999999914
19833 1 1 0.42 11.6916481141355 20.603688827862943 -0.3323999999999927
19837 1 1 0.42 14.601921664235201 22.467734482737434 -0.2767999999999944
19841 1 1 0.42 17.512226028710447 24.328189532712017 -0.25079999999999814
19845 1 1 0.42 20.415609130253365 26.18916629450966 -0.21520000000001005
20039 1 2 -0.42 12.430605845780962 22.475498782221845 -0.3229999999999933
20043 1 2 -0.42 15.338436171930294 24.34101750577322 -0.25739999999998986
20047 1 2 -0.42 18.248465340371965 26.207917231209176 -0.2377999999999929
20051 1 2 -0.42 21.14802461570952 28.062295872891603 -0.20179999999999154
20445 1 1 0.42 13.901682533836528 26.219486958108874 -0.26899999999999125
20449 1 1 0.42 16.80941046146065 28.088043885806318 -0.2353999999999985
20647 1 2 -0.42 14.636275291523695 28.09559336277535 -0.26080000000000325
16891 1 2 -0.42 33.38440506240594 14.854025581605123 -0.04919999999999902
17313 1 1 0.42 29.0333480657591 14.88535897991969 -0.0835999999999899
17317 1 1 0.42 31.949663602617036 16.74486267304045 -0.04240000000000066
17527 1 2 -0.42 26.86262009066438 14.890975054250312 -0.0835999999999899
17531 1 2 -0.42 29.779069670024068 16.753670396170993 -0.07620000000000005
17535 1 2 -0.42 32.68438400290688 18.619189119722364 -0.017199999999988336
17953 1 1 0.42 25.428245440403597 16.773127178278177 -0.10639999999999361
17957 1 1 0.42 28.340934600027655 18.641776172767933 -0.08459999999999468
17961 1 1 0.42 31.244061942298636 20.505944583365494 -0.007199999999997431
18171 1 2 -0.42 26.171394044815838 18.643034418929435 -0.11440000000000339
18175 1 2 -0.42 29.071863766221867 20.516470886619064 -0.037800000000004275
18597 1 1 0.42 24.729765217903044 20.53319635388786 -0.13519999999999754
18601 1 1 0.42 27.6294727577403 22.401814659446845 -0.04560000000000741
18811 1 2 -0.42 25.458429172387838 22.410008603962012 -0.10880000000000223
18815 1 2 -0.42 28.36918615253881 24.2733791023596 -0.05540000000000589
19229 1 1 0.42 24.023251689269706 24.30164360759732 -0.13459999999999184
19233 1 1 0.42 26.926269877566455 26.16360241517956 -0.0882000000000005
19237 1 1 0.42 29.835442050979715 28.03461445733848 -0.006799999999998363
19439 1 2 -0.42 24.75110724063018 26.174435607740815 -0.13939999999999486
19443 1 2 -0.42 27.657997609987525 28.043851825499782 -0.06980000000000075
19849 1 1 0.42 23.318518757143575 28.058551823337854 -0.15819999999999368
16677 1 1 0.42 35.560209230790655 14.855222449905092 -0.03279999999999461
16895 1 2 -0.42 36.289168529155 16.732065388910016 -0.028399999999990655
18605 1 1 0.42 30.54061278420037 24.269113340982788 -0.011799999999993815
17321 1 1 0.42 34.850209885887566 18.61354235646097 -0.012999999999991019
15445 1 1 0.42 51.502396359504104 16.647118428543 -0.046599999999997976
15441 1 1 0.42 48.572873072812015 14.777088432168666 -0.039599999999992974
15651 1 2 -0.42 49.32770423430429 16.647241184266075 -0.02360000000000184
15647 1 2 -0.42 46.405837133237256 14.787860246868387 -0.023399999999995202
13871 1 2 -0.42 65.95566065805461 14.714974036293363 -0.5352000000000032
14253 1 1 0.42 61.62292446331878 14.728047520800715 -0.37519999999999243
14451 1 2 -0.42 59.45493920413673 14.735443553115909 -0.30299999999999727
14257 1 1 0.42 64.52008792141245 16.593197977182868 -0.4274000000000058
14455 1 2 -0.42 62.35261228449234 16.6019136335211 -0.34480000000000643
14459 1 2 -0.42 65.25731933726955 18.46365761858796 -0.40980000000000416
14841 1 1 0.42 55.10842661590448 14.755053779876933 -0.1670000000000016
14845 1 1 0.42 58.02063933797514 16.620633881289844 -0.19259999999999877
14849 1 1 0.42 60.92243206249781 18.48492504761048 -0.21520000000001005
14853 1 1 0.42 63.83064247205556 20.342894294192817 -0.27139999999999986
15043 1 2 -0.42 52.93717029288609 14.763155657599798 -0.10960000000000036
15047 1 2 -0.42 55.84512826163809 16.626894423166604 -0.1484000000000094
15051 1 2 -0.42 58.75757920248546 18.494008971117935 -0.14740000000000464
15055 1 2 -0.42 61.65882437937167 20.355047110777118 -0.19599999999999795
15059 1 2 -0.42 64.56433734643912 22.20970195283647 -0.20579999999999643
15449 1 1 0.42 54.4086050202066 18.509997904048287 -0.055999999999997385
15453 1 1 0.42 57.31913835914432 20.373982181061237 -0.06199999999999761
15457 1 1 0.42 60.21958710308782 22.240298816812594 -0.09499999999999886
15461 1 1 0.42 63.130771099302656 24.095874326794995 -0.11780000000000257
15663 1 2 -0.42 58.05142525386461 22.24815518308931 -0.04279999999999973
15667 1 2 -0.42 60.95530150383962 24.106830275079325 -0.06620000000000914
15671 1 2 -0.42 63.86570210395874 25.96863563800772 -0.09499999999999886
15659 1 2 -0.42 55.14221930314401 20.38760806632242 -0.02539999999999054
15655 1 2 -0.42 52.23368297238 18.524206878994068 -0.02179999999999893
16081 1 1 0.42 62.428000805475214 27.854194233350874 -0.0036000000000058208
12747 1 2 -0.42 78.96930961169589 14.677195962517425 -0.9900000000000091
13113 1 1 0.42 74.63424219139907 14.686985731432554 -0.8633999999999986
13303 1 2 -0.42 72.46459295626407 14.695578632047715 -0.8055999999999983
13677 1 1 0.42 68.12114876814853 14.70386464335519 -0.6463999999999999
13117 1 1 0.42 77.52926997663684 16.563122825029804 -0.9200000000000017
13307 1 2 -0.42 75.36961170823403 16.56088253308371 -0.8543999999999983
13311 1 2 -0.42 78.27675191103084 18.422503762427493 -0.8855999999999966
13681 1 1 0.42 71.03879667090733 16.5798482922986 -0.6912000000000091
13685 1 1 0.42 73.94203055980181 18.435024846181012 -0.7214000000000027
13689 1 1 0.42 76.85134910147949 20.30045150294008 -0.7600000000000051
13875 1 2 -0.42 68.86659221346369 16.576319065260233 -0.6391999999999882
13879 1 2 -0.42 71.76786701952786 18.451197912695974 -0.6469999999999914
13883 1 2 -0.42 74.68024566514121 20.308031668839885 -0.6809999999999974
13887 1 2 -0.42 77.59643936672786 22.16465060246841 -0.6971999999999952
14261 1 1 0.42 67.42270078222332 18.461448015572632 -0.5093999999999994
14265 1 1 0.42 70.34155518609226 20.32036861900879 -0.519599999999997
14269 1 1 0.42 73.24723407667128 22.18462909639866 -0.539999999999992
14273 1 1 0.42 76.15484123568953 24.041953875434864 -0.5882000000000005
14463 1 2 -0.42 68.17049560097657 20.32530953686251 -0.44299999999999784
14467 1 2 -0.42 71.0770041091913 22.191718239406164 -0.4759999999999991
14471 1 2 -0.42 73.98728974802034 24.046802726496274 -0.5053999999999945
14475 1 2 -0.42 76.89015860513646 25.91204524967073 -0.527000000000001
14857 1 1 0.42 66.73611751373294 22.204791723913516 -0.30219999999999914
14861 1 1 0.42 69.64105922978736 24.065308151749637 -0.34499999999999886
14865 1 1 0.42 72.54781780847485 25.924105999462725 -0.39620000000000744
14869 1 1 0.42 75.45290530017931 27.796928688536983 -0.4253999999999962
15063 1 2 -0.42 67.47500935004346 24.071292493249484 -0.2685999999999922
15067 1 2 -0.42 70.37772413531293 25.93613606032395 -0.3295999999999992
15071 1 2 -0.42 73.28315532576775 27.800672738090732 -0.3633999999999986
15465 1 1 0.42 66.04211746352959 25.95829346833876 -0.15200000000000102
15469 1 1 0.42 68.9513340807642 27.81795060611336 -0.21059999999999945
15675 1 2 -0.42 66.77534064101017 27.834890895897534 -0.12959999999999638
12021 1 1 0.42 87.67752034650213 14.615818100980563 -0.9756
12203 1 2 -0.42 85.50110380174922 14.634415593026233 -0.9758000000000067
12561 1 1 0.42 81.14940254775544 14.660777384556315 -1.0112000000000023
12025 1 1 0.42 90.58675592643178 16.47185394492449 -0.9702000000000055
12207 1 2 -0.42 88.41947702739878 16.48658463169334 -0.9712000000000103
12211 1 2 -0.42 91.32391504703929 18.34120878482192 -0.9322000000000088
12565 1 1 0.42 84.0573794792025 16.520894856292443 -0.965999999999994
12569 1 1 0.42 86.986153739705 18.3779741238825 -0.953000000000003
12573 1 1 0.42 89.89621064110489 20.229713517518842 -0.914999999999992
12751 1 2 -0.42 81.88229269303082 16.52641886383076 -0.9797999999999973
12755 1 2 -0.42 84.80545518278849 18.382730908151604 -0.946399999999997
12759 1 2 -0.42 87.72528142445924 20.24416800391078 -0.9136000000000024
12763 1 2 -0.42 90.63436648805731 22.093390905224116 -0.8804000000000087
13121 1 1 0.42 80.45236491182649 18.412836749235435 -0.9325999999999937
13125 1 1 0.42 83.36423512035998 20.260095558979593 -0.8783999999999992
13129 1 1 0.42 86.28071207711236 22.11653035902351 -0.8294000000000068
13133 1 1 0.42 89.1897272157783 23.97566578497505 -0.8380000000000081
13315 1 2 -0.42 81.18729710166461 20.277342738071454 -0.8757999999999981
13319 1 2 -0.42 84.1046404162763 22.127762507684757 -0.8050000000000068
13323 1 2 -0.42 87.01297408330515 23.989721315266994 -0.8045999999999935
13327 1 2 -0.42 89.9281141704929 25.844529601980184 -0.8250000000000028
13693 1 1 0.42 79.76077312313078 22.15605770185325 -0.7497999999999934
13697 1 1 0.42 82.67366494650557 24.01697308578936 -0.7287999999999926
13701 1 1 0.42 85.57190216687522 25.872057572879463 -0.7113999999999976
13705 1 1 0.42 88.4922463270045 27.722906987523533 -0.7342000000000013
13891 1 2 -0.42 80.49595893892561 24.024890829927614 -0.6828000000000003
13895 1 2 -0.42 83.40453675057917 25.883811433363775 -0.6689999999999969
13899 1 2 -0.42 86.31690235934552 27.739693832653856 -0.6835999999999984
14277 1 1 0.42 79.05949614107871 25.899892433086432 -0.5652000000000044
14281 1 1 0.42 81.9711648710124 27.76498151160705 -0.5638000000000005
14479 1 2 -0.42 79.79613852840977 27.77157963172226 -0.5186000000000064
12029 1 1 0.42 93.5093388689954 18.336758889860498 -0.9295999999999935
12577 1 1 0.42 92.80685657101523 22.089401344224218 -0.882000000000005
13137 1 1 0.42 92.10179179185037 25.836274279603476 -0.8543999999999983
11155 1 2 -0.42 101.41889922373092 16.42664914990259 -0.3615999999999957
11497 1 1 0.42 97.12516335420973 16.44619799880208 -0.8787999999999982
11501 1 1 0.42 100.01901426760861 18.29818290388458 -0.6036000000000001
11505 1 1 0.42 102.83187553664784 20.191874065881372 -0.12959999999999638
11675 1 2 -0.42 94.95481012924309 16.458473571109455 -0.9545999999999992
11679 1 2 -0.42 97.86439770408856 18.312668079207278 -0.8333999999999975
11683 1 2 -0.42 100.74569768774954 20.17803335810481 -0.522199999999998
12033 1 1 0.42 96.41793564334401 20.192058199465983 -0.879800000000003
12037 1 1 0.42 99.31561583471414 22.054876297109733 -0.6775999999999982
12041 1 1 0.42 102.15652766131208 23.94595889999121 -0.2546000000000106
12215 1 2 -0.42 94.244883790705 20.20927468962707 -0.9051999999999936
12219 1 2 -0.42 97.15300768299969 22.064267109924877 -0.8559999999999945
12223 1 2 -0.42 100.0461273476909 23.926287295368645 -0.5892000000000053
12227 1 2 -0.42 102.85568436818528 25.822433571826913 -0.12699999999999534
12581 1 1 0.42 95.72029712720851 23.94531443244507 -0.8941999999999979
12585 1 1 0.42 98.62108482922082 25.808838375496496 -0.732600000000005
12589 1 1 0.42 101.46990883779573 27.68003455124003 -0.4069999999999965
12767 1 2 -0.42 93.5479812639432 23.956178313937098 -0.8806000000000012
12771 1 2 -0.42 96.45345512046963 25.807979085434983 -0.8546000000000049
12775 1 2 -0.42 99.34599286763377 27.67675083564781 -0.6869999999999976
13141 1 1 0.42 95.01622670404001 27.693844570085826 -0.863199999999992
13331 1 2 -0.42 92.840778441605 27.703020560385585 -0.8345999999999947
249 1 1 0.42 13.193201709214174 29.974645904795604 -0.2219999999999942
279 1 2 -0.42 13.933243075574087 31.84314145463152 -0.20340000000000202
333 1 1 0.42 15.404916400915237 35.59731835553366 -0.15200000000000102
367 1 2 -0.42 16.1387243047659 37.470263800331 -0.10080000000000666
429 1 1 0.42 17.60914867631126 41.22137180815629 -0.05360000000000298
467 1 2 -0.42 18.344379528495132 43.08848635610762 -0.007999999999995566
20453 1 1 0.42 19.713689313023053 29.947486201065548 -0.19180000000000064
20651 1 2 -0.42 17.54219097869518 29.951107494896217 -0.21339999999999293
20655 1 2 -0.42 20.448322484949934 31.818283420709083 -0.17900000000000205
21045 1 1 0.42 16.106964785171865 31.841607008093096 -0.19419999999999504
21049 1 1 0.42 19.012332332108095 33.70258376989074 -0.17940000000000111
21243 1 2 -0.42 16.84603972993928 33.71271111704432 -0.18680000000000518
21247 1 2 -0.42 19.752860174395618 35.573687878841966 -0.1407999999999987
21633 1 1 0.42 18.313633090559183 37.457681338715936 -0.10120000000000573
21827 1 2 -0.42 19.041373088030795 39.332468119359376 -0.06399999999999295
19853 1 1 0.42 26.21871588989788 29.93128244561981 -0.10080000000000666
19857 1 1 0.42 29.133658291049745 31.788515157863706 -0.013599999999996726