LAMMPS (29 Aug 2024)
Running on 12 partitions of processors
    Step     MaxReplicaForce  MaxAtomForce      GradV0         GradV1         GradVc          EBF            EBR            RDT            RD1            PE1            RD2            PE2            RD3            PE3            RD4            PE4            RD5            PE5            RD6            PE6            RD7            PE7            RD8            PE8            RD9            PE9            RD10           PE10           RD11           PE11           RD12           PE12      
         0   2716.2703        2505.7597      2716.2703      2671.1746      2671.1367      85.133717      1.8541801      67.745943      0              25493.821      0.090909091    25509.897      0.18181818     25524.829      0.27272727     25538.347      0.36363636     25550.149      0.45454545     25560.026      0.54545455     25567.865      0.63636364     25573.61       0.72727273     25577.269      0.81818182     25578.955      0.90909091     25578.837      1              25577.101      
         1   -nan             1.4245408      -nan           -nan           -nan           -nan           -nan           -nan           0              -nan           -nan           19339.441      -nan           19360.103      -nan           -nan           -nan           -nan           -nan           -nan           -nan           -nan           -nan           19417.171      -nan           -nan           -nan           19422.16       -nan           -nan           -nan           -nan           
         2   -nan             1.3875652      -nan           -nan           -nan           -nan           -nan           -nan           0              -nan           -nan           -nan           -nan           -nan           -nan           -nan           -nan           -nan           -nan           -nan           -nan           -nan           -nan           -nan           -nan           -nan           -nan           -nan           -nan           -nan           -nan           -nan           
         3   -nan             1.3550623      -nan           -nan           -nan           -nan           -nan           -nan           0              -nan           -nan           -nan           -nan           -nan           -nan           -nan           -nan           -nan           -nan           -nan           -nan           -nan           -nan           -nan           -nan           -nan           -nan           -nan           -nan           -nan           -nan           -nan           
         4   -nan             1.3522996      -nan           -nan           -nan           -nan           -nan           -nan           0              -nan           -nan           -nan           -nan           -nan           -nan           -nan           -nan           -nan           -nan           -nan           -nan           -nan           -nan           -nan           -nan           -nan           -nan           -nan           -nan           -nan           -nan           -nan           
         5   -nan             1.3522957      -nan           -nan           -nan           -nan           -nan           -nan           0              -nan           -nan           -nan           -nan           -nan           -nan           -nan           -nan           -nan           -nan           -nan           -nan           -nan           -nan           -nan           -nan           -nan           -nan           -nan           -nan           -nan           -nan           -nan           
         6   -nan             1.3523154      -nan           -nan           -nan           -nan           -nan           -nan           0              -nan           -nan           -nan           -nan           -nan           -nan           -nan           -nan           -nan           -nan           -nan           -nan           -nan           -nan           -nan           -nan           -nan           -nan           -nan           -nan           -nan           -nan           -nan           
         7   -nan             1.3523348      -nan           -nan           -nan           -nan           -nan           -nan           0              -nan           -nan           -nan           -nan           -nan           -nan           -nan           -nan           -nan           -nan           -nan           -nan           -nan           -nan           -nan           -nan           -nan           -nan           -nan           -nan           -nan           -nan           -nan           
         8   -nan             1.3523521      -nan           -nan           -nan           -nan           -nan           -nan           0              -nan           -nan           -nan           -nan           -nan           -nan           -nan           -nan           -nan           -nan           -nan           -nan           -nan           -nan           -nan           -nan           -nan           -nan           -nan           -nan           -nan           -nan           -nan           
         9   -nan             1.3481951      -nan           -nan           -nan           -nan           -nan           -nan           0              -nan           -nan           -nan           -nan           -nan           -nan           -nan           -nan           -nan           -nan           -nan           -nan           -nan           -nan           -nan           -nan           -nan           -nan           -nan           -nan           -nan           -nan           -nan           
        10   -nan             1.3482102      -nan           -nan           -nan           -nan           -nan           -nan           0              -nan           -nan           -nan           -nan           -nan           -nan           -nan           -nan           -nan           -nan           -nan           -nan           -nan           -nan           -nan           -nan           -nan           -nan           -nan           -nan           -nan           -nan           -nan           
        11   -nan             1.348201       -nan           -nan           -nan           -nan           -nan           -nan           0              -nan           -nan           -nan           -nan           -nan           -nan           -nan           -nan           -nan           -nan           -nan           -nan           -nan           -nan           -nan           -nan           -nan           -nan           -nan           -nan           -nan           -nan           -nan           
        12   -nan             1.3445825      -nan           -nan           -nan           -nan           -nan           -nan           0              -nan           -nan           -nan           -nan           -nan           -nan           -nan           -nan           -nan           -nan           -nan           -nan           -nan           -nan           -nan           -nan           -nan           -nan           -nan           -nan           -nan           -nan           -nan           
        13   -nan             1.3439217      -nan           -nan           -nan           -nan           -nan           -nan           0              -nan           -nan           -nan           -nan           -nan           -nan           -nan           -nan           -nan           -nan           -nan           -nan           -nan           -nan           -nan           -nan           -nan           -nan           -nan           -nan           -nan           -nan           -nan           
        14   -nan             1.3434908      -nan           -nan           -nan           -nan           -nan           -nan           0              -nan           -nan           -nan           -nan           -nan           -nan           -nan           -nan           -nan           -nan           -nan           -nan           -nan           -nan           -nan           -nan           -nan           -nan           -nan           -nan           -nan           -nan           -nan           
        15   -nan             1.3362296      -nan           -nan           -nan           -nan           -nan           -nan           0              -nan           -nan           -nan           -nan           -nan           -nan           -nan           -nan           -nan           -nan           -nan           -nan           -nan           -nan           -nan           -nan           -nan           -nan           -nan           -nan           -nan           -nan           -nan           
        16   -nan             1.2643695      -nan           -nan           -nan           -nan           -nan           -nan           0              -nan           -nan           -nan           -nan           -nan           -nan           -nan           -nan           -nan           -nan           -nan           -nan           -nan           -nan           -nan           -nan           -nan           -nan           -nan           -nan           -nan           -nan           -nan           
        17   -nan             0.91473949     -nan           -nan           -nan           -nan           -nan           -nan           0              -nan           -nan           -nan           -nan           -nan           -nan           -nan           -nan           -nan           -nan           -nan           -nan           -nan           -nan           -nan           -nan           -nan           -nan           -nan           -nan           -nan           -nan           -nan           
        18   -nan             0              -nan           -nan           -nan           -nan           -nan           -nan           0              -nan           -nan           -nan           -nan           -nan           -nan           -nan           -nan           -nan           -nan           -nan           -nan           -nan           -nan           -nan           -nan           -nan           -nan           -nan           -nan           -nan           -nan           -nan           
        19   -nan             0              -nan           -nan           -nan           -nan           -nan           -nan           0              -nan           -nan           -nan           -nan           -nan           -nan           -nan           -nan           -nan           -nan           -nan           -nan           -nan           -nan           -nan           -nan           -nan           -nan           -nan           -nan           -nan           -nan           -nan           
        20   -nan             0              -nan           -nan           -nan           -nan           -nan           -nan           0              -nan           -nan           -nan           -nan           -nan           -nan           -nan           -nan           -nan           -nan           -nan           -nan           -nan           -nan           -nan           -nan           -nan           -nan           -nan           -nan           -nan           -nan           -nan           
        21   -nan             0              -nan           -nan           -nan           -nan           -nan           -nan           0              -nan           -nan           -nan           -nan           -nan           -nan           -nan           -nan           -nan           -nan           -nan           -nan           -nan           -nan           -nan           -nan           -nan           -nan           -nan           -nan           -nan           -nan           -nan           
        22   -nan             0              -nan           -nan           -nan           -nan           -nan           -nan           0              -nan           -nan           -nan           -nan           -nan           -nan           -nan           -nan           -nan           -nan           -nan           -nan           -nan           -nan           -nan           -nan           -nan           -nan           -nan           -nan           -nan           -nan           -nan           
        23   -nan             0              -nan           -nan           -nan           -nan           -nan           -nan           0              -nan           -nan           -nan           -nan           -nan           -nan           -nan           -nan           -nan           -nan           -nan           -nan           -nan           -nan           -nan           -nan           -nan           -nan           -nan           -nan           -nan           -nan           -nan           
        24   -nan             0              -nan           -nan           -nan           -nan           -nan           -nan           0              -nan           -nan           -nan           -nan           -nan           -nan           -nan           -nan           -nan           -nan           -nan           -nan           -nan           -nan           -nan           -nan           -nan           -nan           -nan           -nan           -nan           -nan           -nan           
        25   -nan             0              -nan           -nan           -nan           -nan           -nan           -nan           0              -nan           -nan           -nan           -nan           -nan           -nan           -nan           -nan           -nan           -nan           -nan           -nan           -nan           -nan           -nan           -nan           -nan           -nan           -nan           -nan           -nan           -nan           -nan           
        26   -nan             0              -nan           -nan           -nan           -nan           -nan           -nan           0              -nan           -nan           -nan           -nan           -nan           -nan           -nan           -nan           -nan           -nan           -nan           -nan           -nan           -nan           -nan           -nan           -nan           -nan           -nan           -nan           -nan           -nan           -nan           
        27   -nan             0              -nan           -nan           -nan           -nan           -nan           -nan           0              -nan           -nan           -nan           -nan           -nan           -nan           -nan           -nan           -nan           -nan           -nan           -nan           -nan           -nan           -nan           -nan           -nan           -nan           -nan           -nan           -nan           -nan           -nan           
        28   -nan             0              -nan           -nan           -nan           -nan           -nan           -nan           0              -nan           -nan           -nan           -nan           -nan           -nan           -nan           -nan           -nan           -nan           -nan           -nan           -nan           -nan           -nan           -nan           -nan           -nan           -nan           -nan           -nan           -nan           -nan           
        29   -nan             0              -nan           -nan           -nan           -nan           -nan           -nan           0              -nan           -nan           -nan           -nan           -nan           -nan           -nan           -nan           -nan           -nan           -nan           -nan           -nan           -nan           -nan           -nan           -nan           -nan           -nan           -nan           -nan           -nan           -nan           
        30   -nan             0              -nan           -nan           -nan           -nan           -nan           -nan           0              -nan           -nan           -nan           -nan           -nan           -nan           -nan           -nan           -nan           -nan           -nan           -nan           -nan           -nan           -nan           -nan           -nan           -nan           -nan           -nan           -nan           -nan           -nan           
        31   -nan             0              -nan           -nan           -nan           -nan           -nan           -nan           0              -nan           -nan           -nan           -nan           -nan           -nan           -nan           -nan           -nan           -nan           -nan           -nan           -nan           -nan           -nan           -nan           -nan           -nan           -nan           -nan           -nan           -nan           -nan           
        32   -nan             0              -nan           -nan           -nan           -nan           -nan           -nan           0              -nan           -nan           -nan           -nan           -nan           -nan           -nan           -nan           -nan           -nan           -nan           -nan           -nan           -nan           -nan           -nan           -nan           -nan           -nan           -nan           -nan           -nan           -nan           
        33   -nan             0              -nan           -nan           -nan           -nan           -nan           -nan           0              -nan           -nan           -nan           -nan           -nan           -nan           -nan           -nan           -nan           -nan           -nan           -nan           -nan           -nan           -nan           -nan           -nan           -nan           -nan           -nan           -nan           -nan           -nan           
        34   -nan             0              -nan           -nan           -nan           -nan           -nan           -nan           0              -nan           -nan           -nan           -nan           -nan           -nan           -nan           -nan           -nan           -nan           -nan           -nan           -nan           -nan           -nan           -nan           -nan           -nan           -nan           -nan           -nan           -nan           -nan           
