ITEM: TIMESTEP
0
ITEM: NUMBER OF ATOMS
45127
ITEM: BOX BOUNDS xy xz yz pp pp ff
0.0000000000000000e+00 3.5436524880590662e+02 1.1851680510053160e+02
0.0000000000000000e+00 2.0425074325381524e+02 0.0000000000000000e+00
-1.0000000000000000e+02 1.0000000000000000e+02 0.0000000000000000e+00
ITEM: ATOMS id type xs ys zs
9 1 0.00486743 0.00521588 0.499251
19 2 0.00490759 0.011325 0.499048
33 1 0.0049522 0.0235363 0.498838
47 2 0.0050161 0.0296311 0.49871
69 1 0.00509489 0.0418672 0.498549
17503 2 0.023329 0.0112409 0.499052
17925 1 0.0110253 0.0113205 0.499143
17929 1 0.0171959 0.0174007 0.498913
17933 1 0.0233721 0.0235118 0.498888
18143 2 0.0110649 0.0174189 0.498888
18147 2 0.0172444 0.023508 0.498821
18573 1 0.0111438 0.0296462 0.498644
18577 1 0.0173094 0.0357512 0.49861
18787 2 0.0112037 0.0357253 0.498493
17507 2 0.0294739 0.0173301 0.498971
18151 2 0.0234132 0.029613 0.498745
18791 2 0.0173739 0.0418381 0.498606
17289 1 0.0294601 0.0112098 0.499126
16863 2 0.0355582 0.00509836 0.499354
17285 1 0.0232873 0.00515266 0.49932
17499 2 0.0171464 0.00518262 0.499344
16025 1 0.0601264 0.00498642 0.499758
16029 1 0.0662993 0.0110415 0.499865
16235 2 0.0539985 0.00499008 0.49951
16239 2 0.0601666 0.0110823 0.499613
16243 2 0.0663165 0.017153 0.499806
16653 1 0.0478722 0.011141 0.499363
16657 1 0.0540527 0.0172113 0.49942
16661 1 0.0601936 0.0232909 0.499679
16867 2 0.041741 0.0111655 0.499223
16871 2 0.0478959 0.0172556 0.499281
16875 2 0.0540604 0.0233168 0.499361
16879 2 0.0602084 0.0294191 0.499668
17293 1 0.0356193 0.0172933 0.499018
17297 1 0.0417729 0.0234038 0.498937
17301 1 0.0479487 0.029491 0.499092
17305 1 0.0540984 0.0355831 0.499462
17511 2 0.035644 0.0234117 0.49886
17515 2 0.0418046 0.0295193 0.498888
17519 2 0.0479847 0.0356117 0.499115
17523 2 0.054157 0.0416531 0.49951
17937 1 0.0295503 0.0295681 0.498782
17941 1 0.0357221 0.0356713 0.498793
17945 1 0.0418905 0.0417426 0.498989
18155 2 0.0296012 0.0356581 0.498708
18159 2 0.0357419 0.0417793 0.498739
18581 1 0.0235133 0.0418123 0.498681
16649 1 0.0417076 0.00505994 0.499476
14423 2 0.109229 0.00471464 0.499569
14813 1 0.0969627 0.00477488 0.499885
14817 1 0.103121 0.0108544 0.499821
15015 2 0.0908228 0.00480183 0.499899
15019 2 0.0970041 0.0108772 0.499844
15023 2 0.103118 0.0169856 0.49982
15417 1 0.0847148 0.010972 0.499973
15421 1 0.0908767 0.0170327 0.49993
15425 1 0.0970388 0.02313 0.499855
15623 2 0.0785928 0.0109805 0.499961
15627 2 0.0847366 0.0170697 0.499909
15631 2 0.0909016 0.0231417 0.49989
15635 2 0.097048 0.029243 0.499769
16033 1 0.07246 0.0171076 0.499842
16037 1 0.0786108 0.0232382 0.499975
16041 1 0.0847695 0.0293123 0.499978
16045 1 0.0909426 0.0354141 0.499865
16247 2 0.0724783 0.0232343 0.499888
16251 2 0.0786364 0.0293441 0.499955
16255 2 0.0848079 0.035416 0.499853
16259 2 0.0909587 0.0415293 0.49987
16665 1 0.0663693 0.0293702 0.49979
16669 1 0.0725158 0.0354791 0.499883
16673 1 0.0786953 0.0415502 0.499891
16883 2 0.0663687 0.0355186 0.499764
16887 2 0.0725623 0.0415811 0.499722
17309 1 0.0602535 0.0416761 0.4997
14225 1 0.115355 0.00469925 0.499462
14821 1 0.109258 0.0169355 0.499818
15429 1 0.103177 0.0292145 0.499912
13085 1 0.152088 0.00458239 0.498255
13275 2 0.145977 0.00457 0.498409
13649 1 0.133703 0.00461805 0.498873
13653 1 0.139896 0.0106993 0.498734
13657 1 0.146017 0.016832 0.498495
13843 2 0.127567 0.00466321 0.499005
13847 2 0.133744 0.0107243 0.498948
13851 2 0.139899 0.0168261 0.498725
14229 1 0.1215 0.0107936 0.499377
14233 1 0.12764 0.0168853 0.499083
14237 1 0.13379 0.0229778 0.499023
14241 1 0.139937 0.0290877 0.499015
14427 2 0.11538 0.0107896 0.499572
14431 2 0.121525 0.0168882 0.499382
14435 2 0.127649 0.0230052 0.499008
14439 2 0.133816 0.0290819 0.499113
14825 1 0.115423 0.0230342 0.499569
14833 1 0.127714 0.0352192 0.499416
14837 1 0.133841 0.0413262 0.499368
15027 2 0.10928 0.0230435 0.499771
15031 2 0.115421 0.0291476 0.49958
15035 2 0.121596 0.0352419 0.499448
15039 2 0.127723 0.0413327 0.499504
14829 1 0.121543 0.0291494 0.499324
15433 1 0.109328 0.0352931 0.499911
15437 1 0.115478 0.0413901 0.499734
15441 1 0.121639 0.0474899 0.499801
15647 2 0.115488 0.0475123 0.499907
15643 2 0.109368 0.0414107 0.499971
11993 1 0.188838 0.00447358 0.496219
12175 2 0.182716 0.00447648 0.496475
12179 2 0.18886 0.0105733 0.496058
12533 1 0.170471 0.00447115 0.497264
12537 1 0.176607 0.0106081 0.496726
12541 1 0.182758 0.0167256 0.496344
12719 2 0.16434 0.00453104 0.497617
12723 2 0.170501 0.0105935 0.497187
12727 2 0.176635 0.0167223 0.496654
12731 2 0.182802 0.0228319 0.496348
13089 1 0.158251 0.01067 0.497942
13093 1 0.164399 0.0167553 0.497549
13097 1 0.170536 0.0228688 0.497091
13101 1 0.176706 0.0289419 0.496777
13279 2 0.152124 0.0106729 0.498229
13283 2 0.158262 0.0167815 0.497878
13287 2 0.164408 0.0228655 0.49752
13291 2 0.17057 0.0289466 0.497104
13295 2 0.176713 0.0350815 0.496708
13661 1 0.152161 0.0229203 0.498306
13665 1 0.158311 0.0290346 0.497824
13669 1 0.164471 0.0350914 0.497499
13673 1 0.170618 0.0412053 0.497218
13855 2 0.146027 0.0229607 0.498602
13859 2 0.152183 0.029039 0.498261
13863 2 0.158338 0.0351308 0.497764
13867 2 0.164534 0.0411897 0.497611
14245 1 0.146076 0.0351701 0.498759
14249 1 0.152249 0.0412717 0.498341
14443 2 0.139945 0.035202 0.49902
14447 2 0.146141 0.0412707 0.498797
13871 2 0.17064 0.0473262 0.49732
14253 1 0.158419 0.0473404 0.498107
14451 2 0.152274 0.0473725 0.498514
14841 1 0.14004 0.0474297 0.499272
15043 2 0.133905 0.0474332 0.499486
10949 1 0.225592 0.00442129 0.494832
11123 2 0.219458 0.00442376 0.494859
11127 2 0.225625 0.0105107 0.494612
11465 1 0.207197 0.00444064 0.495268
11469 1 0.213328 0.0105689 0.494958
11473 1 0.219499 0.0166675 0.494657
11643 2 0.201068 0.00444083 0.495651
11647 2 0.207197 0.0105716 0.495069
11651 2 0.213361 0.0166702 0.494912
11655 2 0.219547 0.022769 0.494557
11997 1 0.194983 0.0105834 0.495819
12001 1 0.201101 0.0167035 0.49525
12005 1 0.207238 0.0227928 0.494963
12009 1 0.213421 0.0288734 0.494643
12183 2 0.19501 0.0166857 0.495684
12187 2 0.20112 0.0228095 0.495183
12191 2 0.20727 0.0289018 0.494756
12195 2 0.213445 0.0350029 0.494701
12545 1 0.188903 0.0228405 0.495965
12549 1 0.195014 0.0289672 0.495526
12553 1 0.201164 0.0350214 0.495192
12557 1 0.207322 0.0411466 0.494988
12735 2 0.188945 0.028932 0.495886
12739 2 0.195044 0.0350617 0.495498
12743 2 0.201203 0.0411291 0.495218
12747 2 0.207344 0.0472581 0.495026
13105 1 0.182844 0.0350408 0.496301
13109 1 0.188934 0.0411885 0.495891
13113 1 0.195109 0.0472755 0.495704
13299 2 0.182818 0.0411707 0.4963
13303 2 0.188978 0.0473021 0.496005
13677 1 0.176747 0.047314 0.496821
9953 1 0.262457 0.0042581 0.494535
10119 2 0.256322 0.00426225 0.494626
10123 2 0.262503 0.0103898 0.494369
10445 1 0.244011 0.00432895 0.494552
10449 1 0.250204 0.0104074 0.494557
10453 1 0.256358 0.0165175 0.494314
10615 2 0.237872 0.00437017 0.494546
10619 2 0.244046 0.0104418 0.494479
10623 2 0.250239 0.0165188 0.4944
10627 2 0.256413 0.0226135 0.494167
10953 1 0.231747 0.0105135 0.494518
10957 1 0.237958 0.0165671 0.494434
10961 1 0.244115 0.0226685 0.494331
10965 1 0.250278 0.0287559 0.494221
11131 2 0.231809 0.0166105 0.494443
11135 2 0.237959 0.0226839 0.494249
11139 2 0.244125 0.0287873 0.494335
11143 2 0.250283 0.0348747 0.494277
11477 1 0.225683 0.022752 0.494498
11481 1 0.231853 0.0288254 0.494416
11485 1 0.237999 0.0349193 0.494531
11489 1 0.244173 0.0409937 0.494438
11659 2 0.2257 0.0288599 0.49446
11663 2 0.231878 0.0349287 0.494583
11667 2 0.238039 0.041015 0.494606
11671 2 0.244221 0.0470875 0.494511
12013 1 0.219566 0.0349924 0.49471
12017 1 0.22575 0.0410771 0.49483
12021 1 0.231912 0.0471633 0.494894
12199 2 0.219602 0.0410906 0.494804
12203 2 0.225778 0.047174 0.494979
12561 1 0.21348 0.0472295 0.494928
9957 1 0.268617 0.0104136 0.494559
10457 1 0.262539 0.0225937 0.494463
10969 1 0.256445 0.0348531 0.494487
11493 1 0.250353 0.0470623 0.494582
9469 1 0.28077 0.00426046 0.496022
9631 2 0.274691 0.00426661 0.494926
9635 2 0.280721 0.0103828 0.496679
9961 1 0.2747 0.016501 0.495764
9965 1 0.280496 0.0226485 0.498603
10127 2 0.268663 0.0164953 0.494692
10131 2 0.274643 0.0226071 0.496504
10461 1 0.268604 0.0287342 0.495659
10465 1 0.274561 0.034834 0.497957
10631 2 0.26255 0.0287143 0.494702
10635 2 0.268623 0.0348226 0.496199
10639 2 0.274572 0.0409338 0.498482
10973 1 0.262569 0.0409393 0.495389
10977 1 0.268613 0.0470333 0.497134
11147 2 0.256457 0.0409524 0.494732
11151 2 0.262631 0.0470194 0.495587
9473 1 0.286521 0.0104204 0.498963
10135 2 0.280454 0.0287457 0.499444
87 2 0.00511759 0.0479814 0.498514
117 1 0.00517565 0.0602057 0.498463
19209 1 0.0112568 0.0479662 0.498545
139 2 0.00520576 0.0663336 0.498358
19419 2 0.0112828 0.0540684 0.498433
177 1 0.00526682 0.0785937 0.498436
203 2 0.00527213 0.0847166 0.498576
17949 1 0.0480747 0.0477994 0.499329
18163 2 0.0419256 0.0478438 0.499042
18167 2 0.0480751 0.053924 0.499248
18585 1 0.029651 0.0479158 0.498672
18589 1 0.0358182 0.0540034 0.498828
18593 1 0.0419775 0.0600747 0.499021
18795 2 0.0235254 0.0479359 0.498588
18799 2 0.0296873 0.0540258 0.498673
18803 2 0.0358425 0.0601124 0.498838
18807 2 0.0420215 0.0661786 0.499076
19213 1 0.0173952 0.0540909 0.498479
19217 1 0.0235787 0.060192 0.49864
19221 1 0.0297562 0.0662435 0.4987
19225 1 0.035919 0.0723389 0.499073
19423 2 0.0174333 0.0602029 0.498485
19427 2 0.0236064 0.0662914 0.498601
19431 2 0.0297842 0.0723604 0.498741
19435 2 0.0359117 0.0784436 0.499107
19833 1 0.0113343 0.066319 0.498361
19837 1 0.01749 0.072429 0.498641
19841 1 0.0236607 0.0785116 0.498771
19845 1 0.0298119 0.0845868 0.498904
20039 2 0.0113621 0.0724277 0.498391
20043 2 0.0175162 0.0785372 0.49869
20047 2 0.0236651 0.0846185 0.498803
20051 2 0.0298339 0.090699 0.498939
20445 1 0.0114081 0.0846932 0.498609
20449 1 0.017568 0.0907856 0.498778
20647 2 0.0114533 0.0907832 0.498703
17313 1 0.0664493 0.0477308 0.499586
17317 1 0.0726316 0.0537949 0.499835
17527 2 0.0602904 0.0477754 0.499633
17531 2 0.0664827 0.053849 0.499646
17535 2 0.0726392 0.0599004 0.499938
17953 1 0.0541892 0.0539346 0.49947
17957 1 0.0603661 0.0599961 0.499652
18171 2 0.0542277 0.0600227 0.49948
18175 2 0.0604012 0.0661071 0.499858
18597 1 0.0481481 0.0661504 0.499384
18601 1 0.0542923 0.0722509 0.499762
18811 2 0.0481601 0.0722719 0.499472
18815 2 0.0542823 0.0783837 0.499719
19229 1 0.0420386 0.0784175 0.499327
19233 1 0.0481839 0.0845332 0.499571
19237 1 0.0543156 0.0906324 0.499957
19439 2 0.0420612 0.0845551 0.499264
19443 2 0.0482098 0.0906333 0.49965
19849 1 0.0359415 0.0907141 0.499117
16891 2 0.0787397 0.0476579 0.49983
16677 1 0.0848496 0.0476771 0.499811
16895 2 0.0848669 0.0537997 0.499926
18605 1 0.0604142 0.0783743 0.499987
17321 1 0.078751 0.0599309 0.499979
15445 1 0.127801 0.0535715 0.49984
15651 2 0.121662 0.0535997 0.499938
14257 1 0.16456 0.0534604 0.497878
14455 2 0.158444 0.053465 0.498288
14459 2 0.164568 0.0595777 0.49795
14845 1 0.146184 0.0535065 0.499044
14849 1 0.152347 0.0595947 0.498948
14853 1 0.158479 0.0656991 0.498647
15047 2 0.140053 0.0535618 0.499345
15051 2 0.146208 0.0596075 0.499284
15055 2 0.152361 0.0657195 0.499006
15059 2 0.158532 0.0717952 0.498897
15449 1 0.133943 0.0596958 0.499704
15453 1 0.140108 0.0657649 0.499699
15457 1 0.146278 0.0718538 0.499495
15461 1 0.152422 0.0779484 0.499384
15663 2 0.140147 0.0718689 0.499839
15667 2 0.146294 0.0779756 0.499648
15671 2 0.152457 0.0840599 0.49955
15659 2 0.133986 0.0657841 0.499876
16081 1 0.146363 0.0901781 0.499963
15655 2 0.127826 0.0596947 0.499941
13117 1 0.201276 0.0533806 0.495378
13307 2 0.195139 0.0533911 0.495752
13311 2 0.201325 0.0594806 0.495539
13681 1 0.182906 0.0534211 0.496588
13685 1 0.189052 0.059533 0.496385
13689 1 0.195231 0.0656047 0.496156
13875 2 0.176785 0.0534202 0.496853
13879 2 0.182945 0.0595311 0.496793
13883 2 0.189109 0.0656093 0.496582
13887 2 0.195272 0.0717 0.496423
14261 1 0.170713 0.0595487 0.497456
14265 1 0.176825 0.0656695 0.497386
14269 1 0.183019 0.0717053 0.497246
14273 1 0.189184 0.0778071 0.49706
14463 2 0.170715 0.0656742 0.49776
14467 2 0.176893 0.0717338 0.497649
14471 2 0.183071 0.0778075 0.497464
14475 2 0.18919 0.0839056 0.49732
14857 1 0.164637 0.0717676 0.498446
14861 1 0.170804 0.0778389 0.498272
14865 1 0.176973 0.0839294 0.497989
14869 1 0.183117 0.0900377 0.497868
15063 2 0.164661 0.0778769 0.498687
15067 2 0.17085 0.0839306 0.498339
15071 2 0.176998 0.0900334 0.49817
15465 1 0.15858 0.084036 0.499222
15469 1 0.164755 0.0901085 0.498947
15675 2 0.158627 0.0901446 0.499348
12025 1 0.238107 0.0532354 0.494728
12207 2 0.231961 0.053245 0.49485
12211 2 0.238151 0.059327 0.494799
12565 1 0.219679 0.0532968 0.495013
12569 1 0.225867 0.0593728 0.494978
12573 1 0.232031 0.0654554 0.495018
12751 2 0.213528 0.0533418 0.495019
12755 2 0.219741 0.0594017 0.495094
12759 2 0.225893 0.0654845 0.495103
12763 2 0.232064 0.0715561 0.495163
13121 1 0.207427 0.0594612 0.495273
13125 1 0.213621 0.0655223 0.495483
13129 1 0.219777 0.0716177 0.495543
13133 1 0.22596 0.077676 0.49544
13315 2 0.207497 0.0655431 0.495498
13319 2 0.213652 0.0716143 0.495794
13323 2 0.219819 0.0777174 0.495724
13327 2 0.225997 0.0837722 0.495456
13693 1 0.201418 0.071669 0.496131
13697 1 0.207547 0.0777342 0.496233
13701 1 0.213724 0.083816 0.496228
13705 1 0.219882 0.0898859 0.495927
13891 2 0.201438 0.0777698 0.496477
13895 2 0.207584 0.0838414 0.496471
13899 2 0.213761 0.0898968 0.496281
14277 1 0.195325 0.083898 0.497109
14281 1 0.201502 0.089965 0.497061
14479 2 0.195368 0.0900026 0.497322
12029 1 0.244261 0.0592857 0.494782
12577 1 0.238195 0.0715163 0.495019
13137 1 0.23212 0.0837582 0.495133
11155 2 0.268588 0.0531496 0.497658
11497 1 0.256527 0.0531439 0.494965
11501 1 0.262595 0.0592445 0.496391
11505 1 0.268472 0.0654392 0.498805
11675 2 0.250378 0.0531668 0.494663
11679 2 0.256553 0.0592504 0.495182
11683 2 0.2626 0.0653439 0.496759
12033 1 0.250433 0.0653771 0.494925
12037 1 0.256559 0.0714634 0.495898
12041 1 0.262472 0.0776416 0.498041
12215 2 0.244301 0.0653717 0.49489
12219 2 0.250478 0.0714724 0.495011
12223 2 0.256559 0.0775809 0.496264
12227 2 0.262427 0.0837747 0.498649
12581 1 0.244354 0.0776081 0.494841
12585 1 0.250504 0.0836736 0.495498
12589 1 0.256514 0.089825 0.497195
12767 2 0.238221 0.077622 0.494974
12771 2 0.244395 0.0837192 0.494941
12775 2 0.250524 0.089796 0.495734
13141 1 0.238278 0.0898168 0.494971
13331 2 0.232143 0.089866 0.495164
11687 2 0.268392 0.0715913 0.499526
10981 1 0.27437 0.0532441 0.499954
249 1 0.00532486 0.096931 0.498867
279 2 0.00535584 0.103035 0.498918
333 1 0.00539455 0.115264 0.499225
367 2 0.00544877 0.121372 0.499412
429 1 0.00550047 0.133586 0.499677
467 2 0.0055218 0.139699 0.499916
20453 1 0.023733 0.0968581 0.49895
20651 2 0.0175971 0.0969132 0.498845
20655 2 0.0237606 0.102966 0.499046
21045 1 0.0114787 0.103033 0.498936
21049 1 0.0176507 0.109099 0.49906
21243 2 0.0114965 0.109144 0.498981
21247 2 0.017689 0.115192 0.499228
21633 1 0.0115867 0.121339 0.499393
21827 2 0.0116056 0.127451 0.499609
19853 1 0.0421092 0.096785 0.499493
19857 1 0.0482759 0.102883 0.499923
20055 2 0.0359807 0.0968053 0.499159
20059 2 0.0421235 0.102912 0.499695
20457 1 0.0298767 0.102954 0.499167
20461 1 0.0360256 0.109051 0.49973
20659 2 0.0299146 0.10906 0.499485
20663 2 0.0360687 0.115139 0.49992
21053 1 0.0238094 0.115202 0.499505
21057 1 0.029947 0.121289 0.499946
21251 2 0.0238371 0.121306 0.499766
21637 1 0.0177377 0.127406 0.499873
15075 2 0.183118 0.0961666 0.498012
15473 1 0.170903 0.0961823 0.498704
15477 1 0.177036 0.102336 0.498418
15679 2 0.164776 0.0962242 0.499085
15683 2 0.170932 0.102303 0.498741
15687 2 0.177093 0.108412 0.498401
16085 1 0.152496 0.096279 0.49973
16089 1 0.158663 0.102362 0.49961
16093 1 0.164806 0.108447 0.499154
16097 1 0.17099 0.114522 0.498874
16303 2 0.158684 0.10846 0.499567
16307 2 0.164848 0.114538 0.499218
16311 2 0.17102 0.120628 0.498945
16725 1 0.158752 0.120678 0.499754
16729 1 0.164923 0.126748 0.499246
16943 2 0.158795 0.12677 0.499632
16947 2 0.164945 0.132847 0.499114
17369 1 0.152701 0.132913 0.499933
17373 1 0.15885 0.138982 0.499406
17587 2 0.152727 0.139012 0.499819
16299 2 0.152519 0.102384 0.499851
16721 1 0.152587 0.114591 0.499996
13903 2 0.219925 0.0959838 0.496024
14285 1 0.207679 0.096028 0.496778
14289 1 0.213831 0.102106 0.496599
14483 2 0.201543 0.0960536 0.497166
14487 2 0.207697 0.102129 0.496876
14491 2 0.213884 0.108203 0.496602
14873 1 0.189262 0.0961377 0.497814
14877 1 0.195436 0.102185 0.497586
14881 1 0.201613 0.108257 0.497284
14885 1 0.207762 0.114351 0.496984
15079 2 0.189317 0.102226 0.497906
15083 2 0.195467 0.108282 0.497565
15087 2 0.201628 0.114376 0.497275
15091 2 0.2078 0.12045 0.49674
15481 1 0.18322 0.108361 0.498144
15485 1 0.189389 0.114411 0.497944
15489 1 0.19553 0.120517 0.49743
15493 1 0.201699 0.126583 0.49698
15691 2 0.183264 0.114452 0.498202
15695 2 0.189411 0.120518 0.497802
15699 2 0.195581 0.126618 0.497305
15703 2 0.201749 0.132672 0.496831
16101 1 0.177143 0.120575 0.498558
16105 1 0.18331 0.126634 0.498084
16109 1 0.189456 0.132742 0.497628
16113 1 0.195612 0.138807 0.496991
16315 2 0.177186 0.126649 0.498363
16319 2 0.183334 0.132748 0.498017
16323 2 0.189469 0.13885 0.497393
16733 1 0.171087 0.132814 0.498691
16737 1 0.17722 0.13888 0.498198
16951 2 0.171097 0.138925 0.498532
13709 1 0.226037 0.095975 0.495608
14293 1 0.220022 0.108167 0.496151
14889 1 0.213951 0.120407 0.496379
15497 1 0.207873 0.132629 0.496523
12593 1 0.262374 0.0960213 0.499376
12779 2 0.256556 0.095928 0.49731
13145 1 0.244445 0.0958951 0.495194
13149 1 0.250556 0.101989 0.496089
13153 1 0.256593 0.108099 0.497672
13335 2 0.238326 0.0958998 0.495043
13339 2 0.244481 0.101983 0.495375
13343 2 0.250626 0.108057 0.496145
13713 1 0.232219 0.102016 0.495399
13717 1 0.238368 0.108106 0.495226
13721 1 0.244559 0.114155 0.495379
13725 1 0.250696 0.120232 0.496147
13907 2 0.226095 0.102042 0.495745
13911 2 0.232256 0.108105 0.49537
13915 2 0.23842 0.114197 0.495147
13919 2 0.244587 0.120243 0.495384
14297 1 0.226157 0.114212 0.495638
14301 1 0.232318 0.120309 0.495263
14305 1 0.238505 0.126364 0.495064
14309 1 0.244675 0.132417 0.495194
14495 2 0.220036 0.114252 0.495996
14499 2 0.226206 0.120314 0.495616
14503 2 0.232374 0.126381 0.495163
14507 2 0.238538 0.132469 0.49495
14893 1 0.220079 0.126466 0.495899
14897 1 0.226269 0.132528 0.495439
14901 1 0.232409 0.138588 0.494989
15095 2 0.213973 0.126492 0.496286
15099 2 0.22015 0.132555 0.495803
15103 2 0.226267 0.138642 0.495284
15501 1 0.214032 0.138696 0.496044
15707 2 0.207911 0.138711 0.496361
12783 2 0.262426 0.102128 0.49959
13347 2 0.256641 0.114177 0.497649
13923 2 0.250723 0.126352 0.496005
13157 1 0.262423 0.114358 0.499691
13351 2 0.262444 0.120458 0.499718
13729 1 0.2567 0.126391 0.497562
13733 1 0.262505 0.132664 0.499613
13927 2 0.256743 0.132489 0.497525
13931 2 0.262546 0.138766 0.499447
14313 1 0.250793 0.138507 0.495919
14511 2 0.244707 0.138519 0.495057
579 2 0.00559135 0.158058 0.499889
657 1 0.00563208 0.170303 0.499899
703 2 0.00563586 0.176416 0.499869
789 1 0.00569036 0.188638 0.499399
23507 2 0.0117797 0.182515 0.499833
23511 2 0.0179317 0.188599 0.49964
537 1 0.00556839 0.151948 0.499947
23333 1 0.0240566 0.188591 0.499815
21101 1 0.0977145 0.18814 0.499125
21295 2 0.0915972 0.188159 0.499273
20707 2 0.103822 0.182002 0.499494
21677 1 0.0793223 0.188242 0.49961
21867 2 0.0731704 0.18829 0.499705
21097 1 0.0915459 0.182086 0.499863
21291 2 0.0854098 0.182105 0.499862
20505 1 0.103799 0.175892 0.499989
17591 2 0.158878 0.14507 0.499189
18017 1 0.152745 0.151244 0.499251
18235 2 0.152761 0.157349 0.498826
18875 2 0.146687 0.169565 0.498511
19503 2 0.140593 0.181819 0.498144
19913 1 0.134464 0.18796 0.497977
18661 1 0.146656 0.163476 0.49886
19293 1 0.140576 0.175709 0.498458
20115 2 0.128319 0.188003 0.498082
19499 2 0.134416 0.175742 0.498595
19909 1 0.128304 0.181908 0.498424
18231 2 0.146626 0.15125 0.499571
20513 1 0.116068 0.18807 0.498483
20711 2 0.109965 0.188072 0.49872
20111 2 0.122168 0.181936 0.498698
18871 2 0.140531 0.163493 0.499163
19289 1 0.13439 0.169638 0.499027
18657 1 0.140506 0.157403 0.499598
19905 1 0.122172 0.175819 0.499241
19495 2 0.128264 0.169675 0.499355
18013 1 0.146582 0.145174 0.499936
20509 1 0.109922 0.181986 0.499233
20107 2 0.116025 0.17587 0.499576
18867 2 0.134375 0.157433 0.499827
19285 1 0.128259 0.163571 0.499852
16327 2 0.195642 0.144924 0.496873
16741 1 0.183384 0.144975 0.497633
16745 1 0.189532 0.151045 0.497075
16955 2 0.177232 0.145005 0.497983
16959 2 0.18341 0.151086 0.497442
16963 2 0.189526 0.15716 0.496792
17377 1 0.165 0.145057 0.498811
17381 1 0.171143 0.151142 0.498231
17385 1 0.1773 0.157215 0.497565
17389 1 0.183417 0.163294 0.497004
17595 2 0.165032 0.151152 0.498629
17599 2 0.171172 0.157227 0.49788
17603 2 0.177317 0.163328 0.49734
17607 2 0.183466 0.169382 0.496668
18021 1 0.158913 0.157306 0.498634
18025 1 0.165077 0.163373 0.49803
18029 1 0.171223 0.169454 0.497484
18033 1 0.177356 0.175525 0.496723
18239 2 0.158917 0.163445 0.498336
18243 2 0.165093 0.169481 0.49775
18247 2 0.171229 0.175556 0.497171
18251 2 0.177395 0.181615 0.49646
18665 1 0.152824 0.169564 0.498307
18669 1 0.158978 0.175627 0.49773
18673 1 0.16513 0.181693 0.497124
18677 1 0.171297 0.187752 0.496571
18879 2 0.15283 0.175671 0.498005
18883 2 0.159 0.181742 0.497366
18887 2 0.165153 0.187787 0.496826
16117 1 0.201805 0.144857 0.496525
16749 1 0.195665 0.157115 0.496538
17393 1 0.189608 0.169345 0.49645
19301 1 0.15287 0.187876 0.497285
19507 2 0.146744 0.187902 0.497571
19297 1 0.146709 0.181802 0.497919
18037 1 0.183521 0.181588 0.49621
14905 1 0.238574 0.144649 0.49477
15107 2 0.232451 0.144692 0.494932
15505 1 0.220196 0.144741 0.495654
15509 1 0.226315 0.150813 0.495064
15513 1 0.23247 0.15689 0.494534
15711 2 0.214053 0.144794 0.495952
15715 2 0.220194 0.150832 0.495475
15719 2 0.226331 0.156933 0.494797
16121 1 0.207929 0.150955 0.496172
16125 1 0.214103 0.157008 0.49561
16129 1 0.220239 0.16307 0.495155
16133 1 0.226376 0.169129 0.494663
16331 2 0.201802 0.150982 0.496392
16335 2 0.207943 0.157053 0.495954
16339 2 0.214124 0.163105 0.495483
16343 2 0.220254 0.169167 0.494986
16753 1 0.201843 0.163169 0.496082
16757 1 0.207991 0.169239 0.495582
16761 1 0.214133 0.175307 0.495174
16765 1 0.220327 0.181334 0.49492
16967 2 0.195712 0.16322 0.496385
16971 2 0.201855 0.169272 0.495758
16975 2 0.207999 0.175355 0.495388
16979 2 0.214156 0.1814 0.495161
17397 1 0.195749 0.17541 0.495895
17401 1 0.201898 0.181501 0.495574
17405 1 0.208056 0.187555 0.495269
17611 2 0.189633 0.17544 0.496163
17615 2 0.195754 0.181527 0.495731
17619 2 0.201944 0.187583 0.495475
18041 1 0.189662 0.187668 0.495852
18255 2 0.18353 0.187692 0.496013
14317 1 0.256725 0.144706 0.497419
14321 1 0.262704 0.150902 0.498754
14515 2 0.250803 0.144614 0.495825
14519 2 0.256778 0.150784 0.497179
14523 2 0.262836 0.156947 0.498152
14527 2 0.268981 0.163011 0.4988
14909 1 0.244699 0.150746 0.494838
14913 1 0.250834 0.156785 0.495556
14917 1 0.256978 0.162892 0.496214
14921 1 0.263183 0.16892 0.496634
15111 2 0.238572 0.150745 0.494554
15115 2 0.244738 0.156826 0.494725
15119 2 0.25091 0.162877 0.49524
15123 2 0.257099 0.168934 0.495604
15127 2 0.263279 0.174974 0.496079
15517 1 0.238639 0.162957 0.494362
15521 1 0.244839 0.168992 0.494454
15525 1 0.251032 0.175023 0.494654
15529 1 0.257234 0.181055 0.494806
15723 2 0.232497 0.162994 0.494474
15727 2 0.23867 0.169063 0.494248
15731 2 0.244902 0.175068 0.494364
15735 2 0.25109 0.181103 0.494409
15739 2 0.257272 0.18716 0.494584
16137 1 0.232571 0.17521 0.49452
16141 1 0.238794 0.181218 0.494356
16145 1 0.244982 0.187241 0.494228
16347 2 0.226446 0.175198 0.494652
16351 2 0.232638 0.181293 0.494407
16355 2 0.238829 0.187295 0.494311
16769 1 0.226529 0.187403 0.494651
16983 2 0.220382 0.187437 0.494862
14325 1 0.268767 0.157066 0.499646
14925 1 0.26919 0.175101 0.497578
14929 1 0.27525 0.181247 0.498449
15131 2 0.269305 0.181122 0.497015
15135 2 0.275364 0.187294 0.49753
15533 1 0.263371 0.187136 0.49541
14933 1 0.281325 0.187408 0.498901
14531 2 0.274937 0.169261 0.499936
839 2 0.00571789 0.194737 0.49902
933 1 0.00577402 0.206906 0.498402
987 2 0.00581916 0.212992 0.49802
23865 1 0.0118261 0.194723 0.499162
24043 2 0.0118871 0.200793 0.498813
1089 1 0.00590904 0.225207 0.497302
1147 2 0.00594925 0.231327 0.496924
22983 2 0.0486632 0.200631 0.499381
23337 1 0.030224 0.194649 0.499782
23341 1 0.0364264 0.200694 0.499416
23345 1 0.0425488 0.206751 0.498905
23349 1 0.0487375 0.212777 0.498356
23515 2 0.0240936 0.194681 0.499561
23519 2 0.0302823 0.200734 0.499321
23523 2 0.0364253 0.206782 0.498877
23527 2 0.0425826 0.212835 0.49842
23869 1 0.018018 0.200785 0.499071
23873 1 0.0241913 0.206854 0.498792
23877 1 0.0303439 0.212931 0.498386
23881 1 0.0365013 0.218986 0.498078
23885 1 0.0427009 0.225027 0.497626
24047 2 0.0180599 0.206871 0.498699
24051 2 0.0242125 0.212942 0.498275
24055 2 0.0303928 0.219005 0.497928
24059 2 0.0365431 0.225071 0.497743
24393 1 0.0119659 0.212984 0.498175
24397 1 0.0181182 0.219062 0.497854
24401 1 0.0242853 0.225138 0.497537
24405 1 0.0304402 0.231194 0.497248
24409 1 0.0366291 0.237238 0.496913
24567 2 0.012003 0.219081 0.497754
24571 2 0.0181392 0.225156 0.497469
24575 2 0.024319 0.23122 0.497156
24579 2 0.0304924 0.237269 0.496844
24909 1 0.0120599 0.231337 0.497064
24913 1 0.018255 0.237356 0.496798
25079 2 0.012071 0.23745 0.496712
22801 1 0.0548049 0.200577 0.499299
22979 2 0.0425292 0.194538 0.499764
22797 1 0.0486636 0.194512 0.499771
22805 1 0.0609611 0.206661 0.49863
22809 1 0.0671621 0.212677 0.49808
22987 2 0.0548505 0.206649 0.498662
22991 2 0.060997 0.212734 0.498178
22995 2 0.0671925 0.218776 0.497528
23353 1 0.0548953 0.218881 0.497862
23357 1 0.0610761 0.224912 0.497193
23531 2 0.0487696 0.218886 0.497909
23535 2 0.0549487 0.224965 0.497367
23539 2 0.0610881 0.231041 0.496802
23889 1 0.0488562 0.231109 0.497142
23893 1 0.0549921 0.237187 0.496512
24063 2 0.0427279 0.231113 0.49724
24067 2 0.0488677 0.237208 0.496652
22443 2 0.0794044 0.21265 0.497859
22813 1 0.0733219 0.218739 0.497431
22999 2 0.0733348 0.224837 0.496914
23361 1 0.0672348 0.230981 0.496615
23365 1 0.0733583 0.237079 0.495995
23543 2 0.0672531 0.237082 0.496128
23003 2 0.0794583 0.230951 0.496235
22817 1 0.079456 0.22485 0.496792
22447 2 0.0855582 0.2187 0.497228
22257 1 0.0855082 0.212638 0.497706
21879 2 0.0916432 0.206481 0.49804
22439 2 0.0732646 0.206556 0.498432
22253 1 0.079396 0.206543 0.498353
21685 1 0.0916532 0.200367 0.498469
21875 2 0.0855112 0.200403 0.498573
21299 2 0.0977435 0.194232 0.498757
22435 2 0.0670911 0.200525 0.499001
22249 1 0.0732227 0.200498 0.498974
21681 1 0.0854765 0.19433 0.499048
21871 2 0.079341 0.194342 0.499228
22245 1 0.0670669 0.194442 0.499434
22431 2 0.0609192 0.194469 0.499621
23007 2 0.0855935 0.23704 0.495791
22821 1 0.0855909 0.230924 0.496155
22825 1 0.091743 0.236996 0.495669
22451 2 0.0917248 0.224756 0.496435
22455 2 0.0978698 0.230826 0.495929
22459 2 0.104001 0.236937 0.495652
21895 2 0.116249 0.230781 0.496012
22273 1 0.11013 0.236918 0.495819
22269 1 0.104005 0.230813 0.495843
22265 1 0.0978499 0.224725 0.496361
22261 1 0.0916718 0.218662 0.49705
21891 2 0.110095 0.224695 0.49618
21701 1 0.116213 0.224675 0.496285
21887 2 0.10395 0.218592 0.496694
21315 2 0.12232 0.218545 0.496548
21697 1 0.110082 0.218576 0.496586
21311 2 0.116183 0.21244 0.496953
21883 2 0.0977942 0.212541 0.497354
21117 1 0.122303 0.212431 0.496941
21693 1 0.103935 0.212491 0.4972
20723 2 0.128414 0.206269 0.497127
20119 2 0.134484 0.194066 0.497576
20521 1 0.128368 0.200205 0.497568
21113 1 0.116171 0.206351 0.497393
21307 2 0.110041 0.206381 0.497489
20719 2 0.122244 0.200236 0.49767
21689 1 0.0977774 0.206443 0.497887
21109 1 0.11 0.200305 0.497869
20517 1 0.122233 0.194131 0.497992
21303 2 0.103881 0.200312 0.498122
20715 2 0.116093 0.194166 0.498022
21105 1 0.103856 0.194217 0.498575
18891 2 0.171305 0.193854 0.496351
19305 1 0.159038 0.193939 0.496906
19309 1 0.165175 0.200003 0.496304
19515 2 0.159058 0.200015 0.496535
19519 2 0.165177 0.206133 0.496023
19929 1 0.159062 0.212276 0.495964
20135 2 0.159122 0.218335 0.495768
20537 1 0.153007 0.224492 0.495711
20739 2 0.15302 0.23059 0.495561
20735 2 0.146874 0.224513 0.495643
21899 2 0.122354 0.236876 0.495788
21129 1 0.140743 0.230662 0.495605
21323 2 0.134615 0.230695 0.495566
21705 1 0.122365 0.230757 0.496013
21133 1 0.146917 0.236726 0.495607
21709 1 0.128486 0.23686 0.495705
21327 2 0.140757 0.236784 0.495677
21319 2 0.128459 0.224621 0.496144
20131 2 0.152941 0.212271 0.496093
21125 1 0.1346 0.224564 0.495864
20533 1 0.146834 0.218411 0.495889
20731 2 0.14072 0.218426 0.496062
19925 1 0.152957 0.206148 0.496481
21121 1 0.128441 0.218532 0.496471
19511 2 0.152909 0.193959 0.497071
20127 2 0.146805 0.206196 0.496746
20727 2 0.134555 0.21237 0.496576
20529 1 0.140708 0.212336 0.496459
19921 1 0.146798 0.200105 0.497069
20525 1 0.134528 0.20626 0.496924
20123 2 0.140658 0.200148 0.497174
19917 1 0.140632 0.194036 0.497535
18681 1 0.177418 0.193851 0.496086
19313 1 0.171345 0.20606 0.495964
17409 1 0.214259 0.193598 0.495093
17623 2 0.208124 0.193641 0.495301
18045 1 0.195869 0.19373 0.495699
18049 1 0.202023 0.199781 0.495465
18053 1 0.208201 0.205829 0.495215
18259 2 0.189711 0.193785 0.495873
18263 2 0.195889 0.199837 0.49561
18267 2 0.202063 0.205867 0.495375
18685 1 0.18358 0.199907 0.495868
18689 1 0.189755 0.20598 0.495753
18693 1 0.195937 0.21201 0.495562
18697 1 0.202095 0.218069 0.495375
18895 2 0.177454 0.199926 0.495944
18899 2 0.183608 0.205994 0.495786
18903 2 0.189796 0.212062 0.49573
18907 2 0.195962 0.218131 0.495564
19317 1 0.177493 0.21213 0.495796
19321 1 0.18368 0.218185 0.495863
19325 1 0.189854 0.224254 0.495814
19329 1 0.195999 0.23029 0.495811
19523 2 0.171379 0.212158 0.49581
19527 2 0.177539 0.21823 0.495781
19531 2 0.183708 0.224287 0.495794
19535 2 0.189847 0.230362 0.495848