ITEM: TIMESTEP
0
ITEM: NUMBER OF ATOMS
45127
ITEM: BOX BOUNDS xy xz yz pp pp ff
0.0000000000000000e+00 3.5436524880590662e+02 1.1851680510053160e+02
0.0000000000000000e+00 2.0425074325381524e+02 0.0000000000000000e+00
-1.0000000000000000e+02 1.0000000000000000e+02 0.0000000000000000e+00
ITEM: ATOMS id type xs ys zs
9 1 0.00408062 0.00602341 0.499225
19 2 0.00411902 0.0121263 0.498997
33 1 0.0041778 0.0243725 0.498783
47 2 0.00424971 0.0304351 0.498706
69 1 0.00428649 0.0426616 0.498533
17503 2 0.0225242 0.0120844 0.499005
17925 1 0.0102544 0.0121389 0.499097
17929 1 0.0164164 0.0182269 0.498937
17933 1 0.0225893 0.024302 0.498842
18143 2 0.010269 0.0182453 0.498891
18147 2 0.0164561 0.0243251 0.49884
18573 1 0.0103645 0.0304206 0.498654
18577 1 0.016549 0.036532 0.49864
18787 2 0.0104055 0.0365246 0.498519
17507 2 0.0287004 0.0181547 0.498939
18151 2 0.0226457 0.0304006 0.498722
18791 2 0.0165927 0.0426397 0.498581
17289 1 0.0286788 0.0120499 0.499103
16863 2 0.0348186 0.00589054 0.499356
17285 1 0.0225088 0.00595902 0.49925
17499 2 0.0163617 0.00598627 0.499293
16025 1 0.0593742 0.00572991 0.499797
16029 1 0.0655411 0.0118239 0.499843
16235 2 0.0532524 0.00575401 0.499522
16239 2 0.059403 0.01183 0.49961
16243 2 0.0655898 0.017913 0.499761
16653 1 0.0471382 0.0119035 0.499344
16657 1 0.0532773 0.017997 0.499399
16661 1 0.0594539 0.0240681 0.499678
16867 2 0.0409865 0.0119545 0.499186
16871 2 0.0471408 0.0180256 0.499263
16875 2 0.053298 0.0241225 0.49937
16879 2 0.0594869 0.0301699 0.499649
17293 1 0.0348617 0.0180933 0.498977
17297 1 0.0410231 0.0241733 0.498941
17301 1 0.0472014 0.0302742 0.499077
17305 1 0.0533995 0.0363138 0.499439
17511 2 0.0348779 0.0241972 0.498842
17515 2 0.0410687 0.0302857 0.498853
17519 2 0.0472409 0.0363786 0.499117
17523 2 0.0534158 0.0424372 0.499519
17937 1 0.0287815 0.0303642 0.498789
17941 1 0.0349554 0.0364335 0.498747
17945 1 0.0411136 0.0425279 0.498985
18155 2 0.0288343 0.0364663 0.498711
18159 2 0.0350011 0.042534 0.498716
18581 1 0.0227252 0.0426166 0.49866
16649 1 0.0409404 0.00587172 0.499454
14423 2 0.108515 0.00549607 0.499576
14813 1 0.0962217 0.00554919 0.499854
14817 1 0.102404 0.0116343 0.499734
15015 2 0.0900844 0.0055865 0.499891
15019 2 0.0962684 0.0116465 0.499814
15023 2 0.102412 0.0177302 0.499771
15417 1 0.083983 0.0117204 0.499935
15421 1 0.0901701 0.0178025 0.499895
15425 1 0.0962932 0.0238853 0.499854
15623 2 0.0778412 0.0117414 0.499881
15627 2 0.0840231 0.0178362 0.499909
15631 2 0.0901782 0.0239226 0.49989
15635 2 0.096324 0.0299912 0.499742
16033 1 0.071732 0.0178918 0.499839
16037 1 0.0779032 0.023956 0.499965
16041 1 0.0840791 0.0300421 0.499932
16045 1 0.0902277 0.0361392 0.49981
16247 2 0.071764 0.0239808 0.499888
16251 2 0.0779156 0.0300811 0.499951
16255 2 0.0841079 0.0361461 0.499814
16259 2 0.0902623 0.0422496 0.499811
16665 1 0.0656275 0.0301456 0.499761
16669 1 0.0717944 0.0362242 0.49989
16673 1 0.0779729 0.0422936 0.499806
16883 2 0.0656785 0.0362322 0.499776
16887 2 0.0718072 0.0423281 0.499698
17309 1 0.0595708 0.0423851 0.499713
14225 1 0.114663 0.00543141 0.499498
14821 1 0.108548 0.0177048 0.499745
15429 1 0.102474 0.0299414 0.499916
13085 1 0.151437 0.00527455 0.498274
13275 2 0.145311 0.00529841 0.49844
13649 1 0.133025 0.00536677 0.498909
13653 1 0.139184 0.0114426 0.498759
13657 1 0.145364 0.0175382 0.498452
13843 2 0.126897 0.00537813 0.499037
13847 2 0.133072 0.0114428 0.498895
13851 2 0.139247 0.0175392 0.498706
14229 1 0.120799 0.011519 0.499304
14233 1 0.126984 0.0175697 0.499013
14237 1 0.133142 0.0236673 0.498882
14241 1 0.139287 0.0297756 0.498964
14427 2 0.114672 0.011563 0.499524
14431 2 0.120868 0.0175938 0.499291
14435 2 0.127004 0.0236875 0.498935
14439 2 0.133161 0.0297888 0.499028
14825 1 0.114746 0.023725 0.499498
14829 1 0.120903 0.0298329 0.499293
14833 1 0.127059 0.0359203 0.499323
14837 1 0.133226 0.0420257 0.49932
15027 2 0.108593 0.0237988 0.499672
15031 2 0.114763 0.0298609 0.499482
15035 2 0.120932 0.0359339 0.499401
15039 2 0.127088 0.0420171 0.499444
15639 2 0.102507 0.036037 0.499984
15433 1 0.108646 0.0360166 0.499866
15437 1 0.114843 0.0420669 0.499724
15643 2 0.108693 0.0421008 0.499929
11993 1 0.188228 0.00514004 0.496207
12175 2 0.182089 0.00516984 0.496448
12179 2 0.188285 0.0112405 0.496037
12533 1 0.169843 0.00520691 0.497278
12537 1 0.175991 0.0112949 0.496717
12541 1 0.182177 0.0173662 0.49633
12719 2 0.163704 0.00520735 0.497605
12723 2 0.16987 0.0113066 0.497185
12727 2 0.176039 0.0173832 0.496613
12731 2 0.18222 0.0234535 0.49626
13089 1 0.157598 0.0113426 0.497886
13093 1 0.163759 0.0174259 0.497556
13097 1 0.169937 0.0234964 0.497032
13101 1 0.176114 0.0295951 0.496715
13279 2 0.151466 0.0113919 0.498232
13283 2 0.15763 0.0174511 0.497835
13287 2 0.163814 0.023534 0.497429
13291 2 0.169995 0.0296132 0.497082
13295 2 0.176135 0.0356857 0.496697
13661 1 0.151531 0.0236139 0.49823
13665 1 0.157707 0.0296732 0.497825
13669 1 0.163906 0.0357482 0.497449
13673 1 0.170064 0.0418394 0.497212
13855 2 0.145387 0.0236415 0.498475
13859 2 0.151566 0.0297122 0.498258
13863 2 0.157748 0.0358056 0.497734
13867 2 0.163921 0.041847 0.497563
14245 1 0.145483 0.0358473 0.498733
14249 1 0.151651 0.0419198 0.498291
14443 2 0.139335 0.0358785 0.499012
14447 2 0.14552 0.0419352 0.498705
10949 1 0.225064 0.00499708 0.494738
11123 2 0.218915 0.00502846 0.494807
11127 2 0.225086 0.0111339 0.494554
11465 1 0.206633 0.00505435 0.495233
11469 1 0.21279 0.0111581 0.494896
11473 1 0.218976 0.0172596 0.494596
11643 2 0.200532 0.00507358 0.49558
11647 2 0.206661 0.0111442 0.495008
11651 2 0.212849 0.0172703 0.494804
11655 2 0.219028 0.0233503 0.494533
11997 1 0.194415 0.0111924 0.495784
12001 1 0.20055 0.0172972 0.495161
12005 1 0.206736 0.0233891 0.494844
12009 1 0.212896 0.0294949 0.494633
12183 2 0.19443 0.0173002 0.495596
12187 2 0.20059 0.0234162 0.495082
12191 2 0.206777 0.0294713 0.49476
12195 2 0.212948 0.035576 0.494719
12545 1 0.188354 0.0234209 0.495869
12549 1 0.194508 0.0295401 0.495443
12553 1 0.200671 0.0356126 0.495173
12557 1 0.206821 0.0417055 0.495003
12735 2 0.188371 0.0295437 0.495798
12739 2 0.194514 0.0356573 0.495479
12743 2 0.200688 0.0417141 0.495199
13105 1 0.182249 0.0356823 0.496282
13109 1 0.188396 0.0417973 0.49588
13299 2 0.182287 0.0417809 0.496288
9953 1 0.261981 0.00481569 0.494919
10119 2 0.255834 0.00483722 0.494884
10123 2 0.262027 0.0109008 0.494808
10445 1 0.24349 0.00492369 0.494618
10449 1 0.249717 0.0109533 0.494759
10453 1 0.255913 0.0170162 0.49475
10615 2 0.237341 0.00495883 0.49453
10619 2 0.243576 0.0109782 0.4946
10623 2 0.249746 0.0170606 0.494725
10627 2 0.255967 0.0231098 0.494715
10953 1 0.231247 0.0110928 0.494468
10957 1 0.237445 0.0171364 0.494571
10961 1 0.243634 0.0231939 0.494677
10965 1 0.249837 0.0292597 0.494693
11131 2 0.231309 0.0171727 0.494486
11135 2 0.237512 0.0232208 0.494489
11139 2 0.243701 0.029276 0.494708
11143 2 0.249893 0.0353445 0.494728
11477 1 0.225191 0.0233138 0.494569
11481 1 0.231389 0.029364 0.494559
11485 1 0.237586 0.0354104 0.494745
11489 1 0.24377 0.0414792 0.494807
11659 2 0.225234 0.029423 0.494554
11663 2 0.231425 0.0354549 0.494751
11667 2 0.237615 0.0415146 0.494893
11671 2 0.243795 0.0475743 0.494989
12013 1 0.21911 0.0355485 0.494754
12017 1 0.225303 0.0415748 0.494968
12199 2 0.21915 0.0416375 0.494844
9957 1 0.26817 0.0108756 0.495093
10457 1 0.262118 0.0230958 0.495034
10969 1 0.256005 0.0353172 0.495079
11493 1 0.249938 0.0475598 0.495148
9469 1 0.280347 0.00473495 0.496571
9631 2 0.274295 0.00476055 0.495456
9635 2 0.280328 0.0108328 0.497255
9961 1 0.274295 0.0169484 0.49637
9965 1 0.280143 0.0230471 0.499189
10127 2 0.268214 0.0169661 0.49537
10131 2 0.274268 0.0230503 0.497125
10461 1 0.268251 0.0291597 0.496261
10465 1 0.274242 0.0352529 0.498548
10631 2 0.262149 0.0291852 0.495303
10635 2 0.26827 0.0352562 0.496831
10639 2 0.274233 0.0413659 0.499028
10973 1 0.262184 0.0413692 0.496052
10977 1 0.268256 0.0474345 0.497756
11147 2 0.256055 0.0414138 0.495319
11151 2 0.262236 0.0474642 0.49622
9473 1 0.286165 0.0108444 0.499482
10135 2 0.280134 0.0291436 0.499969
87 2 0.00434122 0.0487578 0.498552
117 1 0.00437516 0.0610368 0.498471
19209 1 0.0104737 0.0487675 0.498556
139 2 0.00441425 0.0671419 0.498371
19419 2 0.01051 0.0548805 0.498449
177 1 0.00447303 0.0793675 0.498454
203 2 0.00452552 0.0854562 0.498608
17949 1 0.0472998 0.0485899 0.49931
18163 2 0.0411829 0.0486081 0.499052
18167 2 0.0473471 0.0546848 0.499276
18585 1 0.0288935 0.0486981 0.498688
18589 1 0.0350802 0.0547492 0.498846
18593 1 0.0412227 0.0608215 0.499045
18795 2 0.0227476 0.0487336 0.498598
18799 2 0.0289292 0.0547986 0.498705
18803 2 0.0350742 0.0608696 0.498864
18807 2 0.0412682 0.0669228 0.4991
19213 1 0.0166446 0.0548748 0.498512
19217 1 0.0227963 0.060948 0.498683
19221 1 0.0289674 0.0670425 0.498713
19225 1 0.0351551 0.0730743 0.499068
19423 2 0.0166575 0.0609826 0.498496
19427 2 0.0228417 0.0670693 0.498615
19431 2 0.0290272 0.0731149 0.498783
19435 2 0.0351874 0.0791945 0.499114
19833 1 0.0105393 0.0671372 0.498338
19837 1 0.0167205 0.0732112 0.498616
19841 1 0.0229057 0.0792735 0.498746
19845 1 0.0290708 0.0853375 0.498924
20039 2 0.0105847 0.0732365 0.498385
20043 2 0.0167574 0.0793153 0.498713
20047 2 0.0229348 0.0853986 0.498811
20051 2 0.0290963 0.0914411 0.498991
20445 1 0.0106558 0.0854363 0.498655
20449 1 0.0168249 0.091525 0.498823
20647 2 0.0106842 0.0915496 0.498696
16891 2 0.0780211 0.0484019 0.499754
17313 1 0.0657085 0.048504 0.499582
17317 1 0.0719117 0.0545632 0.499788
17527 2 0.0595767 0.0485223 0.499582
17531 2 0.0657768 0.0545919 0.499619
17535 2 0.0719424 0.0606707 0.499914
17953 1 0.0534778 0.0546553 0.499468
17957 1 0.0596608 0.0607443 0.499577
17961 1 0.0658217 0.0668187 0.499964
18171 2 0.0535371 0.0607484 0.499428
18175 2 0.0596804 0.066853 0.499811
18597 1 0.047409 0.0669075 0.499324
18601 1 0.0535554 0.0729964 0.499772
18811 2 0.0474199 0.0730231 0.499456
18815 2 0.0536032 0.0790949 0.499723
19229 1 0.0413084 0.079187 0.499327
19233 1 0.0474714 0.0852542 0.499559
19237 1 0.0536419 0.0913509 0.499966
19439 2 0.0413214 0.0852895 0.499303
19443 2 0.0474872 0.091381 0.499651
19849 1 0.0352254 0.0914289 0.499209
16677 1 0.0841598 0.0484058 0.499836
16895 2 0.0841715 0.0545215 0.499858
18605 1 0.0597355 0.079081 0.499941
17321 1 0.0780604 0.0606523 0.499935
15445 1 0.127195 0.0542447 0.499767
15441 1 0.120966 0.0481512 0.499802
15651 2 0.121058 0.0542451 0.499882
15647 2 0.114839 0.0481863 0.499883
13871 2 0.170087 0.0479488 0.497324
14253 1 0.157846 0.0479914 0.498124
14451 2 0.15172 0.0480155 0.498485
14257 1 0.163989 0.054069 0.497863
14455 2 0.157863 0.0540974 0.498276
14459 2 0.164031 0.0601639 0.497951
14841 1 0.139433 0.0480794 0.499165
14845 1 0.145618 0.0541584 0.499037
14849 1 0.151775 0.0602332 0.498924
14853 1 0.157957 0.0662874 0.498643
15043 2 0.133297 0.0481058 0.499452
15047 2 0.139472 0.0541788 0.499258
15051 2 0.145656 0.0602628 0.499263
15055 2 0.151815 0.066327 0.49902
15059 2 0.157993 0.0723704 0.498971
15449 1 0.133366 0.0603149 0.49972
15453 1 0.139548 0.0663887 0.49969
15457 1 0.145699 0.0724701 0.499525
15461 1 0.151892 0.0785165 0.499411
15663 2 0.139572 0.0724957 0.499786
15667 2 0.145741 0.0785522 0.499669
15671 2 0.151925 0.0846189 0.499525
15659 2 0.13339 0.0664331 0.499873
15655 2 0.127213 0.0603612 0.499891
16081 1 0.145813 0.090763 0.499982
12747 2 0.206852 0.0478257 0.49505
13113 1 0.194608 0.0478576 0.495683
13303 2 0.188476 0.0478856 0.495972
13677 1 0.17621 0.0479126 0.496768
13117 1 0.200733 0.053971 0.4954
13307 2 0.194641 0.0539637 0.495728
13311 2 0.200816 0.0600298 0.495572
13681 1 0.182399 0.0540255 0.496544
13685 1 0.18857 0.0600706 0.496393
13689 1 0.194747 0.0661491 0.4962
13875 2 0.176273 0.054014 0.496804
13879 2 0.182417 0.0601233 0.496765
13883 2 0.188612 0.0661738 0.496595
13887 2 0.194818 0.0722236 0.496514
14261 1 0.170144 0.0601567 0.497453
14265 1 0.176355 0.066214 0.497402
14269 1 0.182523 0.0722887 0.4973
14273 1 0.188704 0.0783408 0.497059
14463 2 0.170223 0.0662301 0.497785
14467 2 0.176391 0.0723118 0.49762
14471 2 0.182582 0.0783566 0.497473
14475 2 0.188741 0.0844345 0.497365
14857 1 0.164127 0.0723544 0.498489
14861 1 0.170297 0.0784169 0.498275
14865 1 0.176474 0.0844738 0.498019
14869 1 0.182631 0.0905764 0.497873
15063 2 0.164178 0.0784364 0.498657
15067 2 0.170337 0.084513 0.498352
15071 2 0.176504 0.0905886 0.498183
15465 1 0.158078 0.0845852 0.49924
15469 1 0.164261 0.0906449 0.498947
15675 2 0.158102 0.0907001 0.499352
12021 1 0.231493 0.0476257 0.495122
12203 2 0.225331 0.0476863 0.495121
12561 1 0.213022 0.0477722 0.494944
12025 1 0.23768 0.0536736 0.495149
12207 2 0.231548 0.0537216 0.495144
12211 2 0.237723 0.0597649 0.495339
12565 1 0.219201 0.0538334 0.49517
12569 1 0.225442 0.0598847 0.495235
12573 1 0.231636 0.0659186 0.495425
12751 2 0.213057 0.0538514 0.495101
12755 2 0.219283 0.0599002 0.495268
12759 2 0.225494 0.0659657 0.495432
12763 2 0.231688 0.0719914 0.495598
13121 1 0.206966 0.0599983 0.495337
13125 1 0.21317 0.0660176 0.495608
13129 1 0.219377 0.0720668 0.495853
13133 1 0.22556 0.0781248 0.49581
13315 2 0.207008 0.0660738 0.495621
13319 2 0.213224 0.0721034 0.495975
13323 2 0.219402 0.0781706 0.495977
13327 2 0.225607 0.0842145 0.495875
13693 1 0.200935 0.0721956 0.496251
13697 1 0.207127 0.0782594 0.496356
13701 1 0.213284 0.0843042 0.496443
13705 1 0.219508 0.0903352 0.496329
13891 2 0.200973 0.0782852 0.496586
13895 2 0.207155 0.0843425 0.496655
13899 2 0.213351 0.0903899 0.496582
14277 1 0.194876 0.0843949 0.497174
14281 1 0.20106 0.0904723 0.497181
14479 2 0.194915 0.0904938 0.497407
12029 1 0.243895 0.0597504 0.495352
12577 1 0.237823 0.0719784 0.49559
13137 1 0.23175 0.0841876 0.495728
11155 2 0.268297 0.0535263 0.498192
11497 1 0.256159 0.05359 0.495606
11501 1 0.262307 0.0596247 0.496982
11505 1 0.268181 0.0657953 0.499352
11675 2 0.250021 0.05363 0.495227
11679 2 0.256211 0.0596719 0.495833
11683 2 0.262309 0.0657502 0.497389
12033 1 0.250081 0.0657959 0.495601
12037 1 0.256228 0.0718659 0.496612
12041 1 0.262184 0.078028 0.498727
12215 2 0.24393 0.065852 0.495474
12219 2 0.250115 0.0718965 0.49572
12223 2 0.25625 0.0779639 0.497054
12227 2 0.262112 0.0841425 0.499365
12581 1 0.244022 0.0780259 0.495529
12585 1 0.250177 0.0840982 0.496337
12589 1 0.256177 0.0901955 0.497965
12767 2 0.23788 0.0780613 0.495597
12771 2 0.244061 0.0840954 0.495727
12775 2 0.250187 0.0901848 0.496565
13141 1 0.23795 0.0902405 0.495684
13331 2 0.231801 0.0902704 0.495827
249 1 0.00456413 0.0976725 0.49889
279 2 0.0046162 0.103761 0.498983
333 1 0.00467788 0.115994 0.49924
367 2 0.00470751 0.122097 0.499496
429 1 0.00476901 0.13432 0.499732
467 2 0.00480901 0.140404 0.49996
20453 1 0.0229942 0.097584 0.499041
20651 2 0.0168624 0.0975958 0.498933
20655 2 0.0230285 0.10368 0.499105
21045 1 0.010752 0.103756 0.499029
21049 1 0.0169227 0.10982 0.499103
21243 2 0.0107985 0.109853 0.499066
21247 2 0.0169733 0.115917 0.499296
21633 1 0.0108587 0.122056 0.499494
21827 2 0.0108692 0.128165 0.49968
19853 1 0.0413687 0.0975312 0.499496
19857 1 0.0475705 0.103583 0.499932
20055 2 0.0352432 0.0975518 0.499197
20059 2 0.0414354 0.103616 0.499716
20457 1 0.0291531 0.103679 0.499232
20461 1 0.0353276 0.109758 0.499743
20659 2 0.0291994 0.109762 0.499536
20663 2 0.0353826 0.115852 0.499943
21053 1 0.0230999 0.11589 0.499599
21251 2 0.0231264 0.121997 0.499849
21637 1 0.016999 0.128162 0.499915
19447 2 0.0536636 0.0974552 0.49997
15075 2 0.182697 0.0966708 0.498041
15473 1 0.170429 0.0967289 0.49871
15477 1 0.176607 0.102778 0.498485
15679 2 0.164278 0.0967655 0.499086
15683 2 0.170473 0.102818 0.498805
15687 2 0.176619 0.108897 0.498441
16085 1 0.152008 0.0968335 0.499717
16089 1 0.158179 0.102882 0.49962
16093 1 0.164374 0.108948 0.499208
16097 1 0.170527 0.115032 0.498897
16303 2 0.158227 0.10899 0.499612
16307 2 0.164405 0.115065 0.499238
16311 2 0.170611 0.121096 0.498974
16725 1 0.158318 0.121205 0.499736
16729 1 0.164509 0.127245 0.499274
16943 2 0.158363 0.127306 0.499674
16947 2 0.164566 0.133314 0.499177
17373 1 0.158454 0.13944 0.499466
17587 2 0.152296 0.139512 0.499836
16299 2 0.152033 0.102937 0.499867
17369 1 0.152236 0.133436 0.49994
13903 2 0.219557 0.0964224 0.496481
14285 1 0.207251 0.0965295 0.497032
14289 1 0.213459 0.102553 0.496946
14483 2 0.201117 0.0965682 0.497263
14487 2 0.207318 0.102604 0.497096
14491 2 0.213501 0.108641 0.496952
14873 1 0.188834 0.0966297 0.497884
14877 1 0.195031 0.102682 0.497707
14881 1 0.201206 0.108727 0.49748
14885 1 0.207414 0.114768 0.497255
15079 2 0.18889 0.102712 0.49794
15083 2 0.19509 0.108756 0.497718
15087 2 0.201275 0.114798 0.497479
15091 2 0.207456 0.120857 0.497091
15481 1 0.18278 0.108859 0.498227
15485 1 0.188981 0.114914 0.498033
15489 1 0.19516 0.120948 0.497603
15493 1 0.201349 0.127002 0.497251
15691 2 0.18283 0.114946 0.498279
15695 2 0.18902 0.121009 0.49793
15699 2 0.195186 0.127047 0.497509
15703 2 0.201375 0.133096 0.497067
16101 1 0.176752 0.121064 0.49861
16105 1 0.182907 0.12715 0.498186
16109 1 0.189075 0.133194 0.497788
16113 1 0.195276 0.139242 0.497241
16315 2 0.176781 0.127168 0.498497
16319 2 0.182939 0.133231 0.498103
16323 2 0.189116 0.139292 0.497519
16733 1 0.170674 0.133286 0.498788
16737 1 0.176843 0.139365 0.4983
16951 2 0.170713 0.139379 0.498601
13709 1 0.225691 0.0963943 0.496151
14293 1 0.219627 0.108601 0.496637
14889 1 0.213584 0.120805 0.496801
15497 1 0.207529 0.133039 0.496836
12779 2 0.256253 0.0962519 0.498087
13145 1 0.244098 0.0962983 0.496016
13149 1 0.250274 0.102351 0.496927
13153 1 0.256301 0.108457 0.49842
13335 2 0.237977 0.0963194 0.495838
13339 2 0.244158 0.102366 0.4962
13343 2 0.250305 0.108453 0.496968
13713 1 0.231881 0.102409 0.496073
13717 1 0.238068 0.108468 0.496026
13721 1 0.244235 0.114531 0.496206
13725 1 0.25042 0.120573 0.496886
13907 2 0.225739 0.10247 0.496322
13911 2 0.231942 0.108479 0.496033
13915 2 0.238114 0.114541 0.495937
13919 2 0.244313 0.120608 0.496156
14297 1 0.225836 0.114624 0.496215
14301 1 0.232008 0.120676 0.496
14305 1 0.238189 0.126751 0.495809
14309 1 0.244394 0.132788 0.495968
14495 2 0.21969 0.114683 0.496478
14499 2 0.225866 0.120709 0.496229
14503 2 0.232051 0.126776 0.49586
14507 2 0.238243 0.132834 0.495746
14893 1 0.219794 0.126842 0.49644
14897 1 0.225959 0.132896 0.496066
14901 1 0.232122 0.138967 0.495769
15095 2 0.213632 0.126902 0.496701
15099 2 0.219825 0.132932 0.496361
15103 2 0.226002 0.138978 0.495948
15501 1 0.213724 0.139077 0.496504
15707 2 0.207572 0.139138 0.496721
13347 2 0.256392 0.114517 0.498329
13923 2 0.250475 0.126647 0.496767
13729 1 0.256421 0.126719 0.498259
13927 2 0.256498 0.132794 0.498155
13931 2 0.262371 0.139035 0.499987
14313 1 0.250544 0.138849 0.496694
14511 2 0.244467 0.138844 0.495843
657 1 0.00497284 0.170947 0.499974
703 2 0.00499045 0.177053 0.499942
789 1 0.00503182 0.189306 0.49948
23507 2 0.0111282 0.183167 0.499879
23511 2 0.0173375 0.189227 0.499698
579 2 0.00491178 0.158742 0.499965
23333 1 0.0234921 0.189175 0.499891
21101 1 0.0972519 0.18865 0.499089
21295 2 0.0911119 0.188692 0.499249
20707 2 0.103359 0.182523 0.499423
21677 1 0.0787951 0.188788 0.499653
21867 2 0.0726684 0.188829 0.499746
21097 1 0.0910865 0.182597 0.499821
21291 2 0.0849368 0.18264 0.499887
17591 2 0.158468 0.145555 0.499239
18017 1 0.152357 0.15169 0.499235
18235 2 0.152386 0.157799 0.498887
18875 2 0.146318 0.17004 0.4985
19503 2 0.140212 0.182275 0.498096
19913 1 0.134129 0.18843 0.497885
19293 1 0.140186 0.176169 0.498457
20115 2 0.127999 0.188454 0.497982
18661 1 0.146265 0.163952 0.49887
19499 2 0.134041 0.176209 0.498571
19909 1 0.127932 0.182361 0.498407
20513 1 0.115671 0.188548 0.498401
20711 2 0.109536 0.188571 0.49867
20111 2 0.121784 0.182405 0.498626
18871 2 0.140115 0.163994 0.49919
19289 1 0.134013 0.170118 0.499046
18231 2 0.146191 0.151761 0.499624
19905 1 0.121754 0.17632 0.499203
19495 2 0.127869 0.170164 0.499364
18013 1 0.146192 0.145636 0.499963
20509 1 0.109524 0.182489 0.499221
18657 1 0.140082 0.157895 0.499622
20107 2 0.115635 0.176343 0.499583
19285 1 0.127817 0.164086 0.499857
18867 2 0.133934 0.157938 0.499882
16327 2 0.195329 0.145315 0.497104
16741 1 0.182976 0.145437 0.497754
16745 1 0.189197 0.151455 0.497236
16955 2 0.176877 0.145438 0.498017
16959 2 0.183039 0.151502 0.497583
16963 2 0.189245 0.15754 0.49691
17377 1 0.164603 0.145516 0.498869
17381 1 0.170771 0.151589 0.498234
17385 1 0.176946 0.157647 0.497634
17389 1 0.183141 0.16369 0.4971
17595 2 0.164618 0.151637 0.498648
17599 2 0.17081 0.157695 0.497909
17603 2 0.176982 0.163728 0.49741
17607 2 0.183152 0.169786 0.496724
18021 1 0.158515 0.157794 0.498679
18025 1 0.164696 0.163857 0.498096
18029 1 0.170879 0.169909 0.497507
18033 1 0.177064 0.175924 0.496729
18239 2 0.15858 0.163857 0.49837
18243 2 0.164743 0.169947 0.497809
18247 2 0.170926 0.176 0.497124
18251 2 0.177107 0.182002 0.496455
18665 1 0.15245 0.170014 0.498364
18669 1 0.158639 0.176085 0.497696
18673 1 0.164812 0.182136 0.49712
18677 1 0.170986 0.188167 0.496535
18879 2 0.152504 0.176103 0.497964
18883 2 0.158676 0.182163 0.497325
18887 2 0.164853 0.188215 0.496743
16117 1 0.201452 0.145297 0.49678
16749 1 0.195389 0.157528 0.496709
17393 1 0.189292 0.169736 0.49655
19301 1 0.152578 0.188286 0.497261
19507 2 0.146418 0.188331 0.497483
18037 1 0.183246 0.18195 0.496241
19297 1 0.146379 0.182237 0.497882
14905 1 0.238344 0.144962 0.49554
15107 2 0.232162 0.145036 0.495597
15505 1 0.219871 0.145145 0.496177
15509 1 0.226064 0.151193 0.495691
15513 1 0.232211 0.157222 0.495218
15711 2 0.213742 0.145184 0.496385
15715 2 0.219927 0.15125 0.495975
15719 2 0.226066 0.157276 0.495426
16121 1 0.207648 0.151324 0.496517
16125 1 0.213808 0.157383 0.496063
16129 1 0.219974 0.163422 0.495584
16133 1 0.226183 0.169432 0.495201
16331 2 0.201489 0.151389 0.496677
16335 2 0.207695 0.157419 0.496273
16339 2 0.21384 0.163482 0.495859
16343 2 0.219997 0.16952 0.495421
16753 1 0.201563 0.163578 0.496313
16757 1 0.207746 0.169621 0.495829
16761 1 0.213889 0.175672 0.495452
16765 1 0.220128 0.181661 0.495282
16967 2 0.195416 0.163607 0.496542
16971 2 0.201604 0.169665 0.495969
16975 2 0.207746 0.17572 0.495601
16979 2 0.213969 0.181745 0.495446
17397 1 0.19548 0.175804 0.496002
17401 1 0.201633 0.181854 0.49571
17405 1 0.207867 0.187886 0.495473
17611 2 0.189347 0.175814 0.49622
17615 2 0.195505 0.181896 0.495836
17619 2 0.201707 0.187933 0.495575
18041 1 0.189392 0.188048 0.495831
18255 2 0.183254 0.188066 0.495946
14317 1 0.256527 0.144994 0.498019
14321 1 0.262495 0.151193 0.499326
14515 2 0.250555 0.144956 0.496521
14519 2 0.256567 0.151072 0.497811
14523 2 0.262658 0.157211 0.498679
14527 2 0.268835 0.163272 0.499226
14909 1 0.244501 0.151014 0.495606
14913 1 0.250635 0.157107 0.496239
14917 1 0.256777 0.163179 0.496803
14921 1 0.262997 0.169181 0.497085
15111 2 0.238347 0.15108 0.495343
15115 2 0.244533 0.157123 0.495403
15119 2 0.250711 0.163158 0.495878
15123 2 0.256909 0.169197 0.496203
15127 2 0.263087 0.17524 0.496556
15517 1 0.238411 0.163261 0.495032
15521 1 0.244635 0.169289 0.495117
15525 1 0.250872 0.175309 0.495268
15529 1 0.257084 0.181302 0.495321
15723 2 0.232271 0.163302 0.495082
15727 2 0.238488 0.169334 0.494918
15731 2 0.244705 0.175379 0.494983
15735 2 0.250947 0.181366 0.494907
15739 2 0.25712 0.187387 0.495082
16137 1 0.23238 0.175475 0.494989
16141 1 0.238603 0.181511 0.494858
16145 1 0.244836 0.187513 0.494711
16347 2 0.22623 0.17552 0.495122
16351 2 0.232459 0.181553 0.4949
16355 2 0.238666 0.1876 0.494729
16769 1 0.226351 0.187683 0.495011
16983 2 0.220208 0.187735 0.495162
14925 1 0.269064 0.175342 0.498016
14929 1 0.275146 0.181485 0.498775
15131 2 0.26919 0.181381 0.49743
15135 2 0.275276 0.187473 0.497862
15533 1 0.263214 0.187374 0.495838
14933 1 0.281227 0.18761 0.499201
839 2 0.00510086 0.195366 0.499127
933 1 0.00516029 0.207559 0.498504
987 2 0.00521498 0.213642 0.49808
23865 1 0.0112436 0.195338 0.499227
24043 2 0.0112708 0.201425 0.498906
1089 1 0.00533812 0.225818 0.497326
1147 2 0.00538221 0.231888 0.4969
22983 2 0.048155 0.201164 0.499393
23337 1 0.0296991 0.195218 0.499809
23341 1 0.0358853 0.201254 0.499406
23345 1 0.0420564 0.207309 0.498881
23349 1 0.0482503 0.213354 0.498346
23515 2 0.0235512 0.195256 0.499619
23519 2 0.0297368 0.201305 0.499324
23523 2 0.0359059 0.207359 0.498867
23527 2 0.0421133 0.213389 0.498417
23869 1 0.0174171 0.201378 0.499129
23873 1 0.0236313 0.207432 0.498797
23877 1 0.0298085 0.213481 0.498437
23881 1 0.0360215 0.21952 0.498072
23885 1 0.0422056 0.225552 0.497476
24047 2 0.0174917 0.207449 0.498723
24051 2 0.0236882 0.213504 0.498323
24055 2 0.0298635 0.21956 0.497906
24059 2 0.0360655 0.225601 0.497633
24393 1 0.0113635 0.213582 0.498222
24397 1 0.0175784 0.219632 0.497897
24401 1 0.0237695 0.225671 0.497515
24405 1 0.0299752 0.231706 0.497092
24409 1 0.0361677 0.237758 0.496612
24567 2 0.0114237 0.21966 0.497748
24571 2 0.0176301 0.22573 0.49747
24575 2 0.0238289 0.23174 0.497016
24579 2 0.0300244 0.237785 0.496593
24909 1 0.0115267 0.231863 0.496992
24913 1 0.0177174 0.237902 0.49668
25079 2 0.0115906 0.23795 0.496579
22801 1 0.0543055 0.201134 0.499274
22979 2 0.0420032 0.195103 0.499773
22797 1 0.0481412 0.195075 0.499771
22805 1 0.0605061 0.207139 0.498586
22809 1 0.0666964 0.213194 0.497959
22987 2 0.0543472 0.207202 0.498639
22991 2 0.0605635 0.213226 0.498096
22995 2 0.066755 0.219251 0.497356
23353 1 0.054468 0.21937 0.497686
23357 1 0.0606605 0.225412 0.496973
23531 2 0.0483255 0.219404 0.497797
23535 2 0.0545059 0.225456 0.497132
23539 2 0.0606712 0.2315 0.496484
23889 1 0.0484133 0.23159 0.49693
23893 1 0.0545826 0.237643 0.496177
24063 2 0.0422855 0.231624 0.496977
24067 2 0.0484505 0.237661 0.496309
22443 2 0.0790245 0.213092 0.497718
22813 1 0.0728966 0.219226 0.497227
22999 2 0.0729208 0.225324 0.496626
23361 1 0.0668117 0.231465 0.496282
23365 1 0.0729972 0.237518 0.495606
23543 2 0.0668702 0.237528 0.495731
23003 2 0.0790996 0.231374 0.495888
22817 1 0.0790467 0.225297 0.496478
22447 2 0.0851422 0.219193 0.496959
22257 1 0.0851511 0.213077 0.49754
21879 2 0.0912444 0.206976 0.497894
22439 2 0.0728244 0.20707 0.498311
22253 1 0.0789602 0.207038 0.498219
21685 1 0.0911963 0.200894 0.49839
21875 2 0.0850714 0.200904 0.498504
22435 2 0.0666115 0.201033 0.498926
21299 2 0.0972937 0.19474 0.498693
22249 1 0.0727541 0.200996 0.498846
21681 1 0.0850157 0.194805 0.499034
21871 2 0.0788514 0.194875 0.499215
22245 1 0.0665667 0.194948 0.499437
22431 2 0.0604407 0.194985 0.499572
23007 2 0.0852715 0.237447 0.495272
22821 1 0.0852315 0.231353 0.495756
22825 1 0.0914236 0.237398 0.495162
22451 2 0.0913222 0.225211 0.496103
22455 2 0.0975342 0.23127 0.495433
22459 2 0.103701 0.23734 0.495078
21895 2 0.11594 0.23117 0.495472
22273 1 0.109838 0.237324 0.495256
22269 1 0.103662 0.231251 0.495348
22265 1 0.0974857 0.225187 0.495938
22261 1 0.0913119 0.219125 0.496721
21891 2 0.109787 0.225109 0.495758
21701 1 0.115925 0.225087 0.495848
21887 2 0.103585 0.219051 0.496384
21315 2 0.122018 0.218945 0.496202
21697 1 0.109735 0.219028 0.49625
21311 2 0.115845 0.212897 0.496688
21883 2 0.0974029 0.213006 0.497189
21117 1 0.121988 0.212862 0.496723
21693 1 0.103535 0.21298 0.496993
20723 2 0.128094 0.206742 0.496922
20119 2 0.134148 0.194524 0.497477
20521 1 0.128037 0.200651 0.497383
21307 2 0.109657 0.206844 0.497318
21113 1 0.115786 0.206822 0.497211
20719 2 0.121901 0.200676 0.497538
21689 1 0.0973732 0.206947 0.497774
21109 1 0.109611 0.200768 0.497792
20517 1 0.12185 0.194602 0.497867
21303 2 0.103473 0.200802 0.498025
20715 2 0.115711 0.194636 0.497964
21105 1 0.103441 0.194696 0.498477
18891 2 0.170991 0.194281 0.496237
19305 1 0.158747 0.194332 0.496739
19309 1 0.164887 0.200419 0.496112
19515 2 0.158759 0.200443 0.496358
19519 2 0.16492 0.2065 0.495828
19929 1 0.158826 0.212625 0.495634
20135 2 0.158867 0.218715 0.495357
20537 1 0.152749 0.22485 0.495247
20739 2 0.152792 0.230956 0.495079
20735 2 0.14659 0.224894 0.495201
21129 1 0.140497 0.231042 0.495134
21899 2 0.1221 0.237264 0.495259
21323 2 0.134338 0.231087 0.495101
21705 1 0.122071 0.231163 0.495541
21133 1 0.146671 0.237107 0.495087
21709 1 0.128233 0.237225 0.495138
21327 2 0.140543 0.237132 0.495172
21319 2 0.128197 0.225013 0.49568
20131 2 0.152689 0.212676 0.495719
21125 1 0.134329 0.224984 0.495435
20533 1 0.146573 0.218798 0.495485
20731 2 0.140438 0.218819 0.495668
19925 1 0.152646 0.20659 0.496275
21121 1 0.128168 0.218908 0.496075
19511 2 0.152614 0.194375 0.496957
20127 2 0.146539 0.206597 0.496422
20727 2 0.134273 0.212774 0.496303
20529 1 0.140414 0.212717 0.496126
19921 1 0.146499 0.200505 0.496876
20525 1 0.134253 0.206689 0.496756
20123 2 0.140352 0.200554 0.497038
19917 1 0.140292 0.194491 0.49739
18681 1 0.177146 0.194195 0.495992
19313 1 0.171062 0.206446 0.495708
17409 1 0.214093 0.193877 0.495296
17623 2 0.207919 0.193968 0.495459
18045 1 0.195592 0.194074 0.495706
18049 1 0.201807 0.200118 0.495552
18053 1 0.207975 0.206143 0.495303
18259 2 0.189447 0.194124 0.495828
18263 2 0.195652 0.200158 0.495611
18267 2 0.20182 0.20622 0.4954
18685 1 0.183339 0.200271 0.495732
18689 1 0.189526 0.206282 0.495655
18693 1 0.195723 0.21237 0.495457
18697 1 0.201912 0.218397 0.495269
18895 2 0.177186 0.200305 0.495816
18899 2 0.183362 0.206373 0.495645
18903 2 0.189578 0.212384 0.495557
18907 2 0.195761 0.218447 0.49536
19317 1 0.177264 0.212485 0.495567
19321 1 0.183464 0.218536 0.495589
19325 1 0.189625 0.224585 0.495552
19329 1 0.195827 0.230647 0.495626
19523 2 0.171117 0.212518 0.495572
19527 2 0.177323 0.218552 0.495495
19531 2 0.183495 0.224635 0.495469
19535 2 0.189664 0.230693 0.495562
19937 1 0.171238 0.224696 0.495357
19941 1 0.17742 0.230774 0.495253
19945 1 0.183561 0.236848 0.495414
19933 1 0.165008 0.218652 0.495413
20143 2 0.171267 0.230811 0.49525
20147 2 0.177424 0.236906 0.495264
20139 2 0.165064 0.224746 0.495312
20541 1 0.158939 0.23089 0.495187
20545 1 0.165152 0.236939 0.495278