(written by ASE)

2400 atoms
2 atom types

0.0      4.3491795778054509  xlo xhi
0.0      753.30000000000007  ylo yhi
0.0                     200  zlo zhi

Atoms # full

     1   1   1  0.42    -0.82415567807711987 -1.0266945498014708e-05      50.053590956369028
     2   1   2 -0.42   -0.098916249270269069      1.2554616317311822      50.047843608823385
     3   1   1  0.42      1.3504366141114792      1.2554657943145109      50.053588122656983
     4   1   2 -0.42      2.0756496264947408 -1.6798091695887741e-05      50.047843759856072
     5   1   1  0.42    -0.82409081850981691       2.510957302706168      50.053581525084191
     6   1   2 -0.42   -0.098761115067571986       3.766371445361909      50.047837500009493
     7   1   1  0.42      1.3506130059459227      3.7664279032101358      50.053580267323241
     8   1   2 -0.42      2.0757264238281148      2.5109249442337047      50.047840045503193
     9   1   1  0.42    -0.82382428040840505      5.0219236407574366       50.05357306264581
    10   1   2 -0.42   -0.098401449030162055       6.277316204807879      50.047826597616975
    11   1   1  0.42      1.3509637552723885      6.2774047482659725      50.053574433949613
    12   1   2 -0.42      2.0759892044489763      5.0218674328905024      50.047828575342848
    13   1   1  0.42    -0.82337621046792786      7.5328966692958144      50.053559817118732
    14   1   2 -0.42   -0.097858301823568764      8.7882475963419466      50.047822155607761
    15   1   1  0.42      1.3515381159669329      8.7883843396107597      50.053563584256572
    16   1   2 -0.42      2.0764473703124184      7.5327931202225979      50.047817662227004
    17   1   1  0.42    -0.82269075875611852      10.043887139331011      50.053548492172666
    18   1   2 -0.42   -0.097019324862622047       11.29921875452559      50.047825998501722
    19   1   1  0.42      1.3523597651900825      11.299387131010429      50.053569561654783
    20   1   2 -0.42      2.0771355242729843      10.043729227955625      50.047813744752524
    21   1   1  0.42    -0.82169631093897422      12.554869006573364      50.053561063515225
    22   1   2 -0.42   -0.095872242427220367      13.810145960364954      50.047851930952291
    23   1   1  0.42      1.3535225764605552      13.810398634766232      50.053600605510226
    24   1   2 -0.42       2.078111363618206      12.554643609999793      50.047822237107788
    25   1   1  0.42    -0.82034450027025652      15.065887252024652      50.053596877721489
    26   1   2 -0.42   -0.094304822459924997      16.321089363986729       50.04791432674233
    27   1   1  0.42      1.3550818674434446      16.321415134671245        50.0536558833642
    28   1   2 -0.42      2.0794634055862335      15.065601650847805      50.047864940360498
    29   1   1  0.42    -0.81853412751758137        17.5769256317312      50.053670504266215
    30   1   2 -0.42   -0.092250291426832165      18.832021883368217      50.048005706961121
    31   1   1  0.42      1.3571372169195701      18.832445290922941      50.053750269627969
    32   1   2 -0.42      2.0812473301842278       17.57653331639327      50.047942998002945
    33   1   1  0.42    -0.81621822990405024      20.087958267028228      50.053781744378441
    34   1   2 -0.42      -0.089667030883817      21.342951284693513      50.048117127041756
    35   1   1  0.42      1.3597354171173393      21.343490156251722      50.053862373934528
    36   1   2 -0.42      2.0835679537955634      20.087495709013545       50.04804788835699
    37   1   1  0.42    -0.81332954461908569      22.599000826775217      50.053898349631886
    38   1   2 -0.42   -0.086450606401110325      23.853866084057568      50.048234014700419
    39   1   1  0.42      1.3629515583876042      23.854520654179147      50.053970394807699
    40   1   2 -0.42        2.08644950073016      22.598421653786342       50.04816756499833
    41   1   1  0.42    -0.80977740144538579      25.110060488539343      50.054006935232721
    42   1   2 -0.42   -0.082605830341044531       26.36482551145108       50.04833507204058
    43   1   1  0.42       1.366792576285397      26.365566028361638      50.054072429662412
    44   1   2 -0.42      2.0899794794811148      25.109347365263591      50.048278231929132
    45   1   1  0.42    -0.80562377151168474      27.621084648137565       50.05410304974405
    46   1   2 -0.42   -0.078133315921767268      28.875707968094719      50.048420981290505
    47   1   1  0.42      1.3712867239270894      28.876594651076445      50.054160081101635
    48   1   2 -0.42      2.0941218961581338      27.620251755475195      50.048369949294134
    49   1   1  0.42     -0.8008104157512822      30.132124280178015      50.054180699259071
    50   1   2 -0.42   -0.073016098770646118       31.38662275974022       50.04850236590363
    51   1   1  0.42      1.3763941403959483      31.387611317145026      50.054236913992568
    52   1   2 -0.42      2.0989213442675418      30.131162703809537      50.048452600301928
    53   1   1  0.42    -0.79544273589173997      32.643081203895221      50.054258270841338
    54   1   2 -0.42   -0.067441498159085747      33.897506148867656      50.048585911503601
    55   1   1  0.42      1.3820205109370989      33.898603099341756      50.054320463432909
    56   1   2 -0.42      2.1042733909143188      32.642061665485599       50.04853321625378
    57   1   1  0.42    -0.78963587461466944      35.154073570548604      50.054348923298257
    58   1   2 -0.42   -0.061439123378921746      36.408395787486533      50.048684894233361
    59   1   1  0.42        1.38800493926107      36.409526732371248      50.054421524178053
    60   1   2 -0.42      2.1100800256643404      35.152964880148851      50.048623106086225
    61   1   1  0.42      -0.783440579882421      37.664971296582102      50.054459030316828
    62   1   2 -0.42    -0.05518493545873937      38.919244993217276      50.048806268438682
    63   1   1  0.42      1.3943226613070987      38.920442417165447      50.054542531343913
    64   1   2 -0.42      2.1162597409207438      37.663807297254344      50.048731554258936
    65   1   1  0.42     -0.7770761633138068      40.175855317728022      50.054592400087579
    66   1   2 -0.42   -0.048791933782148765      41.430119237677737      50.048949297634557
    67   1   1  0.42      1.4007019238895551       41.43125506405854      50.054682930281437
    68   1   2 -0.42       2.122622961357667      40.174693952285061      50.048866791199963
    69   1   1  0.42    -0.77070006703609095      42.686681153005374      50.054746339805583
    70   1   2 -0.42   -0.042536715972091486      43.940940665813493      50.049105680002484
    71   1   1  0.42      1.4070089802641077      43.942072152129832      50.054847231440824
    72   1   2 -0.42      2.1289773107501953       42.68550111559334      50.049016304317099
    73   1   1  0.42      -0.764518075292971      45.197443965069304      50.054910176815909
    74   1   2 -0.42     -0.0364772181233722      46.451725066657566        50.0492669250185
    75   1   1  0.42      1.4130420457055262      46.452786769300275      50.055010592574426
    76   1   2 -0.42      2.1351630833792492      45.196355310461563       50.04917606473861
    77   1   1  0.42    -0.75868371809307711      47.708145938131807      50.055069829139363
    78   1   2 -0.42   -0.030923175698984211      48.962525420000311      50.049420918098335
    79   1   1  0.42      1.4186147660694988      48.963494086776315      50.055165539884626
    80   1   2 -0.42      2.1409378704119497      47.707126953051301      50.049336163600771
    81   1   1  0.42    -0.75343679377476447      50.218801928573704      50.055220456760644
    82   1   2 -0.42   -0.026032561569984618        51.4732707018997      50.049557439763966
    83   1   1  0.42       1.423484724212118      51.474095866128998      50.055307795928755
    84   1   2 -0.42      2.1461946115137223      50.217919861739894      50.049481136460017
    85   1   1  0.42    -0.74901062165595611      52.729369712188905      50.055356797018575
    86   1   2 -0.42   -0.022125238658786111      53.984055761917439      50.049678028720699
    87   1   1  0.42      1.4274285439091521      53.984674051301774      50.055433220404154
    88   1   2 -0.42      2.1505763730754381      52.728657996674492      50.049610614135844
    89   1   1  0.42    -0.74560231686262146       55.23992342968716      50.055469092463134
    90   1   2 -0.42   -0.019257283691495559      56.494755203088566      50.049784757368407
    91   1   1  0.42      1.4303142786892882      56.495165302907729      50.055540808073481
    92   1   2 -0.42      2.1540430888565179      55.239397008204705      50.049724046919849
    93   1   1  0.42    -0.74326318687727344      57.750425657964655      50.055571835945571
    94   1   2 -0.42   -0.017619717185297784      59.005510477647277      50.049877569311747
    95   1   1  0.42      1.4319438674549738      59.005643294829284      50.055638288422315
    96   1   2 -0.42      2.1563383319991609      57.750117206512662      50.049823111299645
    97   1   1  0.42    -0.74228276199697729      60.260875051788993      50.055666621595996
    98   1   2 -0.42   -0.017268197548787577      61.516158654153834      50.049964493599461
    99   1   1  0.42      1.4322936076264829      61.516070068413143      50.055726977345842
   100   1   2 -0.42      2.1573610050444763      60.260809676100585      50.049910619956783
   101   1   1  0.42    -0.74261510706493172      62.771283476638708      50.055749847558928
   102   1   2 -0.42    -0.01823401365675148      64.026822435071409      50.050043144643467
   103   1   1  0.42      1.4313014273468585      64.026548934415999      50.055807128157497
   104   1   2 -0.42      2.1569846741066772      62.771535966881984       50.04999443444423
   105   1   1  0.42    -0.74436204509627879      65.281696679744329      50.055827012789734
   106   1   2 -0.42    -0.02068896606628955      66.537505472205325      50.050113758013481
   107   1   1  0.42      1.4288711979525148      66.536900030565661      50.055883243968452
   108   1   2 -0.42      2.1552798284546144      65.282170974272205      50.050071673023922
   109   1   1  0.42     -0.7474763623410603      67.792143058158075      50.055898442872063
   110   1   2 -0.42   -0.024470379682328732      69.048158176662724      50.050175298232155
   111   1   1  0.42      1.4250240225319086      69.047307781723404      50.055945555673794
   112   1   2 -0.42      2.1521590631387224      67.792818534851492       50.05013683468529
   113   1   1  0.42    -0.75197995313397303      70.302499441719945      50.055953035752133
   114   1   2 -0.42   -0.029723656985830592      71.558807570022537      50.050221644167173
   115   1   1  0.42      1.4197811317691904      71.557683807527084      50.055990669753868
   116   1   2 -0.42      2.1476827019105227      70.303458253249914      50.050190337856506
   117   1   1  0.42    -0.75793873521490862      72.812874578757615      50.055990610900693
   118   1   2 -0.42   -0.036409564499143329      74.069463621213274      50.050243504936269
   119   1   1  0.42      1.4130667133767705      74.068060343472183      50.056020534606489
   120   1   2 -0.42      2.1417444873455684      72.814136374698549      50.050225931290555
   121   1   1  0.42    -0.76544611302511778      75.323216193022503      50.056006504603495
   122   1   2 -0.42   -0.044538003247251441      76.580109778854336      50.050240116759305
   123   1   1  0.42      1.4049294242290222      76.578428203982085      50.056019657490218
   124   1   2 -0.42      2.1342736767982524      75.324783624506537      50.050235854918256
   125   1   1  0.42    -0.77435339532716374      77.833624475456105      50.055987426753333
   126   1   2 -0.42   -0.054209666562988451      79.090736064087466      50.050203138981196
   127   1   1  0.42      1.3951893361121162      79.088841440889567      50.055983467694048
   128   1   2 -0.42      2.1253914504643654      77.835462155330077        50.0502174322774
   129   1   1  0.42    -0.78478676597208485      80.344027012893363      50.055936223795676
   130   1   2 -0.42   -0.065361683045784782      81.601423847593765      50.050123557824655
   131   1   1  0.42      1.3840160757665865      81.599211260391201      50.055911706076159
   132   1   2 -0.42      2.1149801179138756      80.346066327814825      50.050159901658958
   133   1   1  0.42    -0.79659286883121527      82.854450004288736      50.055839353752241
   134   1   2 -0.42   -0.077713430934152519      84.112059355328853      50.049998852354662
   135   1   1  0.42      1.3716409739381392      84.109624751123491      50.055788499009445
   136   1   2 -0.42        2.10321426947282      82.856687067911722      50.050057550498082
   137   1   1  0.42     -0.8097019093120682      85.364841457617075      50.055688818252989
   138   1   2 -0.42    -0.09142021198335594      86.622712293186083      50.049817492766429
   139   1   1  0.42      1.3579030881769627      86.620096597377469      50.055612390484583
   140   1   2 -0.42        2.09013718656507      85.367407459497528      50.049905639654419
   141   1   1  0.42    -0.82381037675558555      87.875335603986571      50.055487855375439
   142   1   2 -0.42    -0.10577161241284191      89.133309654149727      50.049578309878299
   143   1   1  0.42      1.3435077900659989      89.130596154291936      50.055383703512881
   144   1   2 -0.42      2.0760734588233669      87.878022799574836      50.049695940410011
   145   1   1  0.42    -0.83843876611292378      90.385844786879105      50.055230121430327
   146   1   2 -0.42    -0.12052452346416793       91.64386026848247      50.049282532223991
   147   1   1  0.42      1.3287230197701576      91.641145305714204      50.055095583755495
   148   1   2 -0.42      2.0614658118507849      90.388598767956822      50.049427200672021
   149   1   1  0.42    -0.85353486705714277      92.896348392610335      50.054913879822763
   150   1   2 -0.42    -0.13619959422298353       94.15455381920448      50.048928437531046
   151   1   1  0.42      1.3130185555942606      94.151582768918985       50.05475413386749
   152   1   2 -0.42      2.0463956953800881         92.899225717522      50.049104987635218
   153   1   1  0.42    -0.86981161600322698      95.406837477308642      50.054546731498682
   154   1   2 -0.42    -0.15281305455368852      96.665211112408073      50.048517152990129
   155   1   1  0.42      1.2963790463348923      96.661980964913624      50.054357918347065
   156   1   2 -0.42      2.0301679093214751      95.409826738948581       50.04872100916392
   157   1   1  0.42    -0.88673996818183876      97.917252051077867       50.05411800718089
   158   1   2 -0.42    -0.16995012440854382      99.175695891337483      50.048048068155438
   159   1   1  0.42      1.2792364040961921      99.172498684871357      50.053898504513725
   160   1   2 -0.42      2.0132429182735034       97.92043922734706      50.048279598081571
   161   1   1  0.42    -0.90412404966409454      100.42771709395196      50.053631825614694
   162   1   2 -0.42    -0.18762439712039464      101.68618794536111      50.047513865971851
   163   1   1  0.42      1.2615186947643342       101.6829508329468      50.053385182555267
   164   1   2 -0.42      1.9958859705718521      100.43097137441143      50.047779338776714
   165   1   1  0.42    -0.92219971029711845       102.9380523168314      50.053089015324581
   166   1   2 -0.42    -0.20609918134320643      104.19669584660204      50.046916233613054
   167   1   1  0.42      1.2430292381863732      104.19322140170576      50.052808786602029
   168   1   2 -0.42      1.9778356155475907      102.94149018842405      50.047213796687906
   169   1   1  0.42    -0.94110935081756031      105.44832682937053      50.052477587493655
   170   1   2 -0.42    -0.22542787453075952      106.70709896861294      50.046253319633799
   171   1   1  0.42      1.2236972762510063      106.70340341331723      50.052163454732593
   172   1   2 -0.42      1.9589412401758217      105.45189845047801      50.046584946538353
   173   1   1  0.42    -0.96095323051535675      107.95848669792906      50.051800860908294
   174   1   2 -0.42    -0.24586160040402821       109.2173902450417      50.045517298732022
   175   1   1  0.42       1.203233158726503      109.21346422169228      50.051454998879869
   176   1   2 -0.42      1.9391066524315737      107.96222597922007      50.045886291989994
   177   1   1  0.42    -0.98214559433083382      110.46845519290223       50.05105604627861
   178   1   2 -0.42     -0.2678266722313703      111.72751601800444      50.044702348675621
   179   1   1  0.42       1.181263704451055      111.72334301175496      50.050668303563931
   180   1   2 -0.42      1.9179410841263567      110.47244971771792      50.045109933097478
   181   1   1  0.42      -1.004962606128464       112.9781497819275      50.050223908077044
   182   1   2 -0.42    -0.29167945757813757      114.23753454220781      50.043798149435105
   183   1   1  0.42      1.1574222460284094      114.23293482278169      50.049790573952642
   184   1   2 -0.42      1.8951125701731095      112.98256011647044      50.044252495930117
   185   1   1  0.42     -1.0299670138426151      115.48762052627268      50.049301970991543
   186   1   2 -0.42    -0.31795015245348252      116.74734685678193      50.042791023891823
   187   1   1  0.42      1.1311335067308972      116.74224238946391      50.048821289712919
   188   1   2 -0.42      1.8701142501655734      115.49246968378979      50.043298991869285
   189   1   1  0.42      -1.057747944093161      117.99670907321897      50.048279525659446
   190   1   2 -0.42    -0.34736104841154464       119.2569413826204      50.041674573545073
   191   1   1  0.42      1.1017634396769027      119.25113434921288      50.047740427182397
   192   1   2 -0.42      1.8423335919817743       118.0022050008439       50.04223813566206
   193   1   1  0.42     -1.0887498574033183        120.505475679499      50.047138697060014
   194   1   2 -0.42    -0.38029061917663209      121.76623592542887      50.040438501004893
   195   1   1  0.42      1.0688658478874693      121.75969177637658      50.046539203141862
   196   1   2 -0.42       1.811275494398765      120.51161507142712      50.041063487359494
   197   1   1  0.42     -1.1237844769838703      123.01384597020746      50.045875773991042
   198   1   2 -0.42    -0.41758654597783179      124.27517732884866      50.039072856737448
   199   1   1  0.42      1.0316096227812706      124.26781083189772       50.04521090368447
   200   1   2 -0.42      1.7762130540762071      123.02070406151358      50.039762519945114
   201   1   1  0.42     -1.1633627744552832      125.52165541803028       50.04447831158619
   202   1   2 -0.42    -0.45965719744894235      126.78379722069837      50.037575961329225
   203   1   1  0.42     0.98961187377747573      126.77541176542329      50.043742689802052
   204   1   2 -0.42      1.7365914990771529      125.52953629498641      50.038330933419253
   205   1   1  0.42     -1.2079142633689968      128.02904910117695      50.042940441058882
   206   1   2 -0.42    -0.50696794424371949      129.29199226354564      50.035956683473216
   207   1   1  0.42     0.94240093494225841      129.28264336752576       50.04213883574667
   208   1   2 -0.42      1.6919409877807183      128.03797276785696      50.036771043283998
   209   1   1  0.42     -1.2578301222129598      130.53607391481916      50.041279145712956
   210   1   2 -0.42    -0.55968769240753657       131.7998988579462      50.034254761686704
   211   1   1  0.42     0.88976005394966662      131.78944043460274      50.040432499649746
   212   1   2 -0.42      1.6419316895959517      130.54599412583002      50.035103055246651
   213   1   1  0.42     -1.3130067427339811      133.04280402265917      50.039545655928023
   214   1   2 -0.42    -0.61724315837733024      134.30742522806037      50.032548375019132
   215   1   1  0.42     0.83228912153039125      134.29611260216393      50.038695104997586
   216   1   2 -0.42      1.5866783813062615      133.05366289336271      50.033386517342301
   217   1   1  0.42      -1.372670041703945       135.5494262950229       50.03783098495007
   218   1   2 -0.42    -0.67903026916947762      136.81485797856644      50.030935517113299
   219   1   1  0.42     0.77056704479654303      136.80276445711857      50.037027887937327
   220   1   2 -0.42      1.5269384956970942      135.56113371637366      50.031714873812582
   221   1   1  0.42     -1.4362281492883753      138.05619660529663      50.036233408758761
   222   1   2 -0.42    -0.74402630048176688      139.32226921849693      50.029497521524192
   223   1   1  0.42     0.70556886099583538      139.30980062249245       50.03551881897458
   224   1   2 -0.42      1.4633424110129847      138.06857066475544      50.030181661372126
   225   1   1  0.42     -1.5020632819892326      140.56352868291896       50.03482930257718
   226   1   2 -0.42    -0.80999210993149984      141.82990087104099      50.028272389747279
   227   1   1  0.42     0.63955276353847224      141.81745797986176      50.034231643518368
   228   1   2 -0.42      1.3975416538959908      140.57604565090725      50.028848424310461
   229   1   1  0.42     -1.5676454136220181      143.07161352620929      50.033663202920955
   230   1   2 -0.42     -0.8745961012631186      144.33797581486942      50.027244905551811
   231   1   1  0.42     0.57487795535647235      144.32601467168155      50.033179291162945
   232   1   2 -0.42       1.332017614256839      143.08385525106723      50.027727862003026
   233   1   1  0.42     -1.6310669653608185      145.58067219959577      50.032707388136892
   234   1   2 -0.42    -0.93631880517522093      146.84674549844644      50.026340083073087
   235   1   1  0.42     0.51306588458668401      146.83555963426522      50.032294000689681
   236   1   2 -0.42      1.2686836567066246      145.59225442011959       50.02677414780041
   237   1   1  0.42     -1.6908869879125954       148.0906744801058      50.031859623845975
   238   1   2 -0.42    -0.99373392974305508      149.35623705428696      50.025437426365471
   239   1   1  0.42     0.45559503420366382       149.3460520173615      50.031444186550708
   240   1   2 -0.42      1.2089405960677135      148.10141151620599      50.025887832030115
   241   1   1  0.42     -1.7457245929849685       150.6016571226082      50.030965714622795
   242   1   2 -0.42     -1.0457097757355553      151.86642073314613      50.024396617014247
   243   1   1  0.42      0.4035929072155498      151.85746582694225      50.030465124687538
   244   1   2 -0.42      1.1541402857426233      150.61123566326773      50.024933264638705
   245   1   1  0.42     -1.7947192472400901      153.11343027792446      50.029864333021443
   246   1   2 -0.42     -1.0915743937202604      154.37724274110559      50.023093768665703
   247   1   1  0.42     0.35773887273808008      154.36954799409975      50.029211046620162
   248   1   2 -0.42      1.1051566009083733      153.12176391590569      50.023774774934026
   249   1   1  0.42     -1.8373531303555839      155.62579603462638      50.028436527775625
   250   1   2 -0.42     -1.1309647146984247      156.88848015271759      50.021451572401766
   251   1   1  0.42     0.31838381226815643      156.88214436902047      50.027598341778592
   252   1   2 -0.42      1.0624961841646237      155.63281171885325      50.022308086770025
   253   1   1  0.42     -1.8733777272385355      158.13855517376481      50.026638260675448
   254   1   2 -0.42     -1.1636741923538727      159.40001617579097      50.019462531892898
   255   1   1  0.42     0.28572516039818574       159.3950198965951      50.025624062649982
   256   1   2 -0.42      1.0264273367119536      158.14422045392467      50.020488430922327
   257   1   1  0.42     -1.9026478709869634      160.65151166426435      50.024507054377729
   258   1   2 -0.42     -1.1895970574091825      161.91166411642345       50.01719913867425
   259   1   1  0.42     0.25985708860319245        161.908023947212      50.023363565533444
   260   1   2 -0.42      0.9971025289363542      160.65583192924504      50.018348361783396
   261   1   1  0.42     -1.9250995569105174      163.16452955486074      50.022152957584268
   262   1   2 -0.42     -1.2086635036578119      164.42332474431643      50.014805174486682
   263   1   1  0.42      0.2408377464328334       164.4210227307457      50.020958221922506
   264   1   2 -0.42     0.97459746528251667      163.16749471550625       50.01599806334346
   265   1   1  0.42     -1.9406704910377481      165.67749139096577      50.019744413544863
   266   1   2 -0.42     -1.2208119442138763      166.93490873440456      50.012472651353733
   267   1   1  0.42     0.22872539623063784      166.93393746003787      50.018598567609104
   268   1   2 -0.42     0.95898398708237242      165.67912767857419      50.013608824369747
   269   1   1  0.42     -1.9493171311367168      168.19034475474214      50.017488864040388
   270   1   2 -0.42     -1.2260034435366269      169.44637745120357       50.01041606246968
   271   1   1  0.42     0.22355038495070467      169.44671684952499      50.016503166839279
   272   1   2 -0.42     0.95030995779367988      168.19065539798541      50.011387022160356
   273   1   1  0.42     -1.9510173573591618      170.70304731145757       50.01560938068458
   274   1   2 -0.42     -1.2242369050985489      171.95772195815709      50.008847977556336
   275   1   1  0.42      0.2253156295385795      171.95934624785303      50.014892991832461
   276   1   2 -0.42     0.94860130805831078       170.7020616983767      50.009549000531102
   277   1   1  0.42     -1.9458077528655027      173.21560556226262      50.014318737657277
   278   1   2 -0.42     -1.2155980830611277      174.46897395693014      50.007959170097259
   279   1   1  0.42     0.23393520869271003      174.47183692897022      50.013966822692254
   280   1   2 -0.42     0.95382138191675647      173.21335322862956      50.008298754228477
   281   1   1  0.42     -1.9338312566921696      175.72803804994783      50.013796343729318
   282   1   2 -0.42     -1.2003125619461104      176.98019216587016      50.007900719589657
   283   1   1  0.42      0.2491890498446207      176.98422144186407      50.013880061289711
   284   1   2 -0.42     0.96582307495458763      175.72457976786669       50.00780931983639
   285   1   1  0.42     -1.9154070153905631      178.24038427766661       50.01416956763569
   286   1   2 -0.42     -1.1788155907194913      179.49146070818242      50.008767433640777
   287   1   1  0.42     0.27064661593711675      179.49654171384981      50.014728468651313
   288   1   2 -0.42     0.98428400621778356      178.23581115782295       50.00820573643341
   289   1   1  0.42     -1.8910889181507566      180.75269246725259      50.015499372454506
   290   1   2 -0.42      -1.151806606418047      182.00287986118204      50.010582622024344
   291   1   1  0.42     0.29761621237340891      182.00885182682683      50.016535365346471
   292   1   2 -0.42      1.0086424309540372      180.74714187153734      50.009548717514853
   293   1   1  0.42     -1.8617148583200893      183.26501736756447      50.017769026313516
   294   1   2 -0.42     -1.1202803304202118      184.51455106061269      50.013287695994464
   295   1   1  0.42     0.32911166899459809      184.52120395381792      50.019242289771412
   296   1   2 -0.42      1.0380520565450417      183.25867515470057      50.011821501443606
   297   1   1  0.42     -1.8284152132186191      185.77740692912715      50.020877801882953
   298   1   2 -0.42     -1.0855024026580422      187.02655627619214      50.016740257708925
   299   1   1  0.42     0.36387248692680113      187.03364091383648      50.022707142895698
   300   1   2 -0.42      1.0713771034848796      185.77050454693827      50.014923136394614
   301   1   1  0.42     -1.7925582715763859      188.28990051056027      50.024644758774947
   302   1   2 -0.42     -1.0489265406892199      189.53894797751207      50.020724940826923
   303   1   1  0.42     0.40044986778695812      189.54619784162207      50.026714482299617
   304   1   2 -0.42      1.1072420679936186       188.2826987657194      50.018672444849678
   305   1   1  0.42     -1.7556404684560445      190.80252499101729      50.028826105492826
   306   1   2 -0.42     -1.0120593383356324      192.05173779546215      50.024978874654991
   307   1   1  0.42     0.43733832118956845      192.05889293594592      50.031000094721492
   308   1   2 -0.42      1.1441489131725768      190.79529091069742      50.022826296320829
   309   1   1  0.42     -1.7191348924043024      193.31529132885763      50.033146437132871
   310   1   2 -0.42    -0.97629669310991796      194.56489203906867      50.029228095803795
   311   1   1  0.42     0.47313830021464581      194.57172868826154      50.035287315593337
   312   1   2 -0.42      1.1806251126582481      193.30826956858965      50.027111326027679
   313   1   1  0.42     -1.6843285270280104      195.82819359011452      50.037337722622937
   314   1   2 -0.42     -0.9427773303464928      197.07834432994807      50.033226243715049
   315   1   1  0.42     0.50670650464185896      197.08469345872919      50.039325946739673
   316   1   2 -0.42      1.2153880345851011      195.82158259355271      50.031262790045083
   317   1   1  0.42      -1.652199064418898      198.34121531846148      50.041175505709781
   318   1   2 -0.42    -0.91229413770044732      199.59201067052769      50.036784892741323
   319   1   1  0.42     0.53724548287745355      199.59776556143794      50.042923395185525
   320   1   2 -0.42      1.2474650419341131       198.3351528782523      50.035060407679552