(written by ASE)

2400 atoms
2 atom types

0.0      4.3491795778054509  xlo xhi
0.0      753.30000000000007  ylo yhi
0.0                     200  zlo zhi

Masses

     1                  10.811 # B
     2      14.006699999999999 # N

Atoms # full

     1   1   1  0.42    -0.72977581085667265 -1.6541520885737791e-05      50.059367377487376
     2   1   2 -0.42  -0.0048940340273311515      1.2554321911888149      50.048893759000826
     3   1   1  0.42      1.4448159194160035      1.2554251792084594      50.059370593334229
     4   1   2 -0.42      2.1696906582407784   -2.39986323318786e-05      50.048896117652106
     5   1   1  0.42    -0.72979147736631533      2.5108438751649955      50.059378039965786
     6   1   2 -0.42  -0.0049126426116447505      3.7663092019587303      50.048898436140909
     7   1   1  0.42      1.4448088543187096      3.7663149422667326      50.059377872624601
     8   1   2 -0.42      2.1696808077162251        2.51083518075226      50.048896414808787
     9   1   1  0.42    -0.72983306766554501      5.0217353377931753      50.059384875371862
    10   1   2 -0.42  -0.0049660199569938239      6.2771961043699811      50.048912931779668
    11   1   1  0.42      1.4447506964264052       6.277199304459411      50.059382367028213
    12   1   2 -0.42      2.1696296593031379      5.0217527845245788      50.048911195886291
    13   1   1  0.42    -0.72987792204727864      7.5326225955879398      50.059399481415433
    14   1   2 -0.42  -0.0049808591921839214      8.7880724706637405      50.048916756680484
    15   1   1  0.42      1.4447204642949374      8.7880876742454941      50.059397669071004
    16   1   2 -0.42      2.1695758875689632      7.5326249604184854      50.048925355049874
    17   1   1  0.42    -0.72988518717681883        10.0435214274884      50.059416501911102
    18   1   2 -0.42  -0.0050122129489659113       11.29896487382063       50.04892058862761
    19   1   1  0.42      1.4446937416988594      11.298950959123465      50.059398287328619
    20   1   2 -0.42      2.1695567107467979      10.043538147307588      50.048933040869059
    21   1   1  0.42     -0.7299699948014956      12.554421829283958      50.059409926766982
    22   1   2 -0.42  -0.0050460708724101881      13.809826388646787      50.048908696748782
    23   1   1  0.42      1.4446664754642751      13.809830748692624      50.059378884075812
    24   1   2 -0.42      2.1695094709499543      12.554421783835588      50.048938619418529
    25   1   1  0.42    -0.72994972968864524      15.065327202716738      50.059387757856769
    26   1   2 -0.42  -0.0050523277069262724      16.320744912226665      50.048860176484347
    27   1   1  0.42      1.4446459688884774      16.320725123317892      50.059342927271068
    28   1   2 -0.42      2.1695033413968789      15.065316565706768      50.048912465708298
    29   1   1  0.42    -0.72996718311503694      17.576199027361003      50.059334893826431
    30   1   2 -0.42  -0.0050309873734091012       18.83160674174399      50.048795838602423
    31   1   1  0.42      1.4447092816800244      18.831628508822508      50.059270439023308
    32   1   2 -0.42      2.1695181831746675      17.576172416239217      50.048855207201072
    33   1   1  0.42    -0.72987850684903466      20.087099221086504      50.059248572753276
    34   1   2 -0.42  -0.0049287691054465139      21.342491811327896      50.048719733892021
    35   1   1  0.42      1.4447686237959816      21.342524476463442      50.059187886236245
    36   1   2 -0.42      2.1695805722131913       20.08708252867492      50.048783672725264
    37   1   1  0.42    -0.72978193973127403      22.597964402754151      50.059170553431812
    38   1   2 -0.42  -0.0048744068315345656      23.853378504285907      50.048645551387374
    39   1   1  0.42      1.4448539067652932      23.853436033387474      50.059123763281491
    40   1   2 -0.42      2.1696683228844407      22.597939035985341      50.048699017474554
    41   1   1  0.42    -0.72964705095226001      25.108864635044107      50.059110008133523
    42   1   2 -0.42  -0.0046773128991214616      26.364244670708626      50.048606700788646
    43   1   1  0.42      1.4450279883177104      26.364304288246494      50.059073449628514
    44   1   2 -0.42       2.169824765752455      25.108837511182504      50.048637832974421
    45   1   1  0.42    -0.72942378675501085      27.619756713611366      50.059074434057912
    46   1   2 -0.42  -0.0044078078381726117      28.875148747138581      50.048586669124674
    47   1   1  0.42      1.4452765776520107      28.875192958182858      50.059053261313061
    48   1   2 -0.42      2.1700499136305655      27.619705975157473      50.048611365760607
    49   1   1  0.42     -0.7291449902559608      30.130645531858164      50.059070082501975
    50   1   2 -0.42  -0.0041443501876370619      31.386055713694276      50.048575258004455
    51   1   1  0.42      1.4455474714493468      31.386061041002478       50.05904983323363
    52   1   2 -0.42      2.1703355882235194      30.130578207000116      50.048598131590147
    53   1   1  0.42    -0.72885953631431954      32.641532938046424      50.059063740156851
    54   1   2 -0.42  -0.0038196789626211282      33.896895935176346      50.048570603855502
    55   1   1  0.42       1.445860272928156      33.896948094581774      50.059037516850111
    56   1   2 -0.42      2.1706527274605536      32.641461313502774      50.048594955057226
    57   1   1  0.42    -0.72847963300091778      35.152400091691398      50.059046179397434
    58   1   2 -0.42  -0.0034104098152319593       36.40780412867327      50.048546234960909
    59   1   1  0.42      1.4462812982180138      36.407859323087159      50.059016771985455
    60   1   2 -0.42      2.1709818111721093      35.152368975782878       50.04858089260842
    61   1   1  0.42    -0.72814930602930161      37.663262898305732      50.059011757610442
    62   1   2 -0.42  -0.0030479689817102095      38.918643166527126       50.04849577315246
    63   1   1  0.42      1.4466897362661499      38.918729838633084      50.058965615616366
    64   1   2 -0.42      2.1713461577200244      37.663222461749925      50.048540696026969
    65   1   1  0.42    -0.72769452099782728      40.174188960141763      50.058942434578476
    66   1   2 -0.42  -0.0025528604242275803      41.429534087444978      50.048414916904107
    67   1   1  0.42      1.4471371330933822      41.429613504044497      50.058878534156861
    68   1   2 -0.42      2.1717568004105172       40.17413959681938      50.048477910201818
    69   1   1  0.42    -0.72724777931577367      42.685017329294531      50.058848110557577
    70   1   2 -0.42  -0.0021442435656779161      43.940415024787498      50.048303709558603
    71   1   1  0.42      1.4476069779810723      43.940502470688223      50.058773749172772
    72   1   2 -0.42      2.1721982629976075      42.684957514285948      50.048381628614926
    73   1   1  0.42    -0.72680728937763184      45.195975539346151      50.058728670295096
    74   1   2 -0.42  -0.0016367981920143758      46.451302345373819      50.048188698718612
    75   1   1  0.42      1.4480389071370776      46.451322945979371      50.058645751974083
    76   1   2 -0.42      2.1726649804408447      45.195863611562231      50.048265674752322
    77   1   1  0.42    -0.72632341920493471      47.706798339857194       50.05859797881935
    78   1   2 -0.42  -0.0012847962367440633       48.96219719217909      50.048060150406656
    79   1   1  0.42      1.4484369453170569      48.962251525489378      50.058520193994447
    80   1   2 -0.42       2.173118597077996      47.706695649116838      50.048142289118971
    81   1   1  0.42    -0.72594470289235835      50.217687660603772      50.058476126383169
    82   1   2 -0.42 -0.00086055207812925924      51.473014931314708      50.047937415674625
    83   1   1  0.42      1.4488247844457052      51.473089694767445       50.05839751623877
    84   1   2 -0.42      2.1735697682479951      50.217624345293729       50.04801476069953
    85   1   1  0.42    -0.72552729239470259      52.728533738986343      50.058353499473071
    86   1   2 -0.42 -0.00050557445650741993      53.983933426807582      50.047831021809955
    87   1   1  0.42       1.449188279277204       53.98402204416081      50.058278783345564
    88   1   2 -0.42      2.1739302212512626      52.728498058660612      50.047901629214778
    89   1   1  0.42      -0.725241623072853      55.239396685980729       50.05824407995938
    90   1   2 -0.42 -0.00022631023922149498      56.494765573437057      50.047723110602135
    91   1   1  0.42      1.4494767926186343      56.494833548036532      50.058179460226803
    92   1   2 -0.42      2.1742688730126005      55.239386100678736      50.047795110795647
    93   1   1  0.42    -0.72498997136131704      57.750295038050311      50.058148224475715
    94   1   2 -0.42  5.6813008972866905e-06      59.005701225911309      50.047630257512829
    95   1   1  0.42      1.4496927483791611        59.0057477748663      50.058080186103368
    96   1   2 -0.42      2.1744513232018181       57.75026149704469      50.047691988460677
    97   1   1  0.42    -0.72486014343824201      60.261166385538537      50.058048393503753
    98   1   2 -0.42  0.00016399767015506939      61.516589043119112      50.047543608895992
    99   1   1  0.42      1.4499074938355445      61.516539833225359      50.057986126741916
   100   1   2 -0.42      2.1746228770147646      60.261093839340099      50.047606570673878
   101   1   1  0.42    -0.72474199653667581      62.772050810160444      50.057962687268166
   102   1   2 -0.42  7.4498004220657776e-05      64.027475092270876      50.047452775794163
   103   1   1  0.42      1.4497703162522286      64.027440939959746      50.057905204332066
   104   1   2 -0.42      2.1747099393402491      62.772017037757585      50.047514820100339
   105   1   1  0.42    -0.72479785140030484      65.282876996157512      50.057878605293602
   106   1   2 -0.42 -7.0577141293896856e-05      66.538356874274456      50.047377066546808
   107   1   1  0.42      1.4496390498745846      66.538311208828404      50.057818401538142
   108   1   2 -0.42       2.174671956106192      65.282896950322609      50.047430379029713
   109   1   1  0.42    -0.72499123467571447      67.793735800316512      50.057793703663641
   110   1   2 -0.42 -0.00023820554213453034      69.049220850641703      50.047301501779138
   111   1   1  0.42      1.4494542277634221      69.049212993415225      50.057741322535861
   112   1   2 -0.42      2.1744825357465265      67.793846622618616      50.047357723481021
   113   1   1  0.42    -0.72537238633537282      70.304593596571408      50.057726298240532
   114   1   2 -0.42 -0.00059859448235138229      71.560108064579182      50.047227069513568
   115   1   1  0.42      1.4491102673471852      71.560094307708937      50.057675147307087
   116   1   2 -0.42      2.1741006384331842      70.304711021857784      50.047279950386937
   117   1   1  0.42    -0.72574051662762185      72.815537677457499      50.057656968672759
   118   1   2 -0.42  -0.0011524213093718025      74.071039495618322      50.047171097382758
   119   1   1  0.42      1.4485339117875249      74.070938707598458      50.057605332626146
   120   1   2 -0.42      2.1737468505563222       72.81557751516884      50.047216419210358
   121   1   1  0.42    -0.72631375762854122      75.326447490348784      50.057592870989296
   122   1   2 -0.42  -0.0017303612833493237      76.581927925271955      50.047113685870791
   123   1   1  0.42      1.4479834868889203      76.581836798688059      50.057551931067401
   124   1   2 -0.42      2.1731567167914569      75.326423767490297       50.04716054035454
   125   1   1  0.42    -0.72690751460896974      77.837306672217892      50.057546037763125
   126   1   2 -0.42  -0.0023721447922486426      79.092804176888833       50.04706451501049
   127   1   1  0.42      1.4473432208435242       79.09273725029685      50.057505706265204
   128   1   2 -0.42      2.1725513130898775      77.837359933402524      50.047103291749075
   129   1   1  0.42    -0.72754699723813243      80.348178511742489      50.057498351726245
   130   1   2 -0.42   -0.002986762182530492       81.60373766115481      50.047032113965159
   131   1   1  0.42      1.4467195562254191        81.6036071087388      50.057461401834793
   132   1   2 -0.42      2.1719147242015229      80.348267994210829      50.047064816467412
   133   1   1  0.42     -0.7282475747315007      82.859052981990601      50.057464205412316
   134   1   2 -0.42  -0.0036283338639183918      84.114568033953219      50.046999553229007
   135   1   1  0.42       1.446063729324601      84.114553546482043      50.057438342937708
   136   1   2 -0.42      2.1712346740315831      82.859194331645284      50.047031981157971
   137   1   1  0.42    -0.72881723340631299      85.369944579488447      50.057447381847084
   138   1   2 -0.42  -0.0042368882085401108      86.625470273591489      50.046984783925112
   139   1   1  0.42      1.4454630594579261      86.625461220109599      50.057422419544842
   140   1   2 -0.42       2.170658550310367      85.370084574304045      50.047006311836874
   141   1   1  0.42    -0.72937793717710264      87.880907731596736      50.057434301737892
   142   1   2 -0.42  -0.0048305843011771446      89.136426142881163       50.04698734045693
   143   1   1  0.42      1.4448670855923702      89.136288230144743      50.057418587242623
   144   1   2 -0.42      2.1700998593056409      87.880932134823738      50.047003821552764
   145   1   1  0.42    -0.73002643677480272      90.391814890311039      50.057443984515984
   146   1   2 -0.42  -0.0053535541141175513      91.647328460424646      50.046996878329011
   147   1   1  0.42      1.4443517168417412      91.647172203876423      50.057439653025739
   148   1   2 -0.42      2.1694469596554233      90.391795605353778      50.047006984632191
   149   1   1  0.42    -0.73057368100796105      92.902647847607071      50.057469641126396
   150   1   2 -0.42  -0.0060865759152858622      94.158182742264685      50.047030178347221
   151   1   1  0.42      1.4436140749150439      94.158111756604825      50.057468689888708
   152   1   2 -0.42      2.1688984950187256      92.902762068011441      50.047026323096297
   153   1   1  0.42    -0.73138073673713133       95.41350959515168      50.057505281712508
   154   1   2 -0.42  -0.0070070345905263358      96.669090033896694      50.047078083345255
   155   1   1  0.42      1.4426893217764907      96.668979069640358        50.0575165112324
   156   1   2 -0.42      2.1680947029078506      95.413682849967259      50.047070246222489
   157   1   1  0.42    -0.73244920574607086      97.924401886500831      50.057567478772135
   158   1   2 -0.42  -0.0080341592062465206      99.179953195493951      50.047139300360691
   159   1   1  0.42       1.441659179183024      99.179891693654426      50.057587791700286
   160   1   2 -0.42      2.1670316107736514      97.924562775232843      50.047122419404445
   161   1   1  0.42    -0.73350612001308724      100.43530211365479      50.057643801546469
   162   1   2 -0.42  -0.0093293159340495629      101.69093238264212      50.047228055692059
   163   1   1  0.42      1.4403649554443476       101.6907063028156       50.05766973041171
   164   1   2 -0.42      2.1659750937707951      100.43544836996166       50.04719833797494
   165   1   1  0.42    -0.73486225814246053      102.94619642447437      50.057735931105455
   166   1   2 -0.42   -0.010500701738935058      104.20181716371617      50.047331365103844
   167   1   1  0.42      1.4391919072483021       104.2015877889588       50.05777643682773
   168   1   2 -0.42      2.1646206967640751      102.94633873490673      50.047295497405543
   169   1   1  0.42    -0.73593853480185234      105.45708844146901      50.057856060259184
   170   1   2 -0.42   -0.011571087217407626       106.7126606602057      50.047450992749688
   171   1   1  0.42       1.438125165180991      106.71252933410419      50.057905771713493
   172   1   2 -0.42       2.163540344407572      105.45721277587919      50.047403998468695
   173   1   1  0.42    -0.73692785152896456      107.96800619555891       50.05798996770163
   174   1   2 -0.42   -0.012428414100836236      109.22346623740098      50.047596800552022
   175   1   1  0.42      1.4372602948983608      109.22350715631286      50.058046154464321
   176   1   2 -0.42       2.162553880737879       107.9680916963116      50.047537303131826
   177   1   1  0.42    -0.73761750247695979      110.47886795538621      50.058142689441866
   178   1   2 -0.42   -0.012736584667572146      111.73437623779986      50.047752796430999
   179   1   1  0.42      1.4369539202292838      111.73435202971596      50.058213014552891
   180   1   2 -0.42      2.1618698271939385      110.47899034702898      50.047690771315224
   181   1   1  0.42    -0.73744101446533394       112.9898211073743      50.058321394885709
   182   1   2 -0.42   -0.012515412830375394      114.24528744754714       50.04792371260033
   183   1   1  0.42      1.4371745042734996      114.24521301762395      50.058397734943703
   184   1   2 -0.42      2.1620416775183529      112.98980414580264      50.047852942352364
   185   1   1  0.42    -0.73773363038437911      115.50069060469117      50.058507559626179
   186   1   2 -0.42   -0.013417019747271039      116.75620612307712      50.048110952363864
   187   1   1  0.42      1.4362673155011032      116.75603003124191      50.058585304173775
   188   1   2 -0.42      2.1617552385502115      115.50069177333458      50.048032038692781
   189   1   1  0.42    -0.73905725106982578      118.01143181841502      50.058697915314617
   190   1   2 -0.42   -0.014884946414509775      119.26706781872036      50.048302816196468
   191   1   1  0.42      1.4348031182153635      119.26691598521226      50.058781209609734
   192   1   2 -0.42      2.1604310792555839      118.01168215282406      50.048222254642852
   193   1   1  0.42    -0.74042311813366934      120.52234883041872      50.058899759294263
   194   1   2 -0.42   -0.016073949623199833      121.77795431441359      50.048499764617205
   195   1   1  0.42      1.4336117742582579      121.77779728654286      50.058986337277247
   196   1   2 -0.42      2.1590639157202882      120.52253044535897      50.048416892785177
   197   1   1  0.42    -0.74153402116778855      123.03322557090662      50.059105775738345
   198   1   2 -0.42    -0.01730935438381296      124.28884755783542      50.048698694368255
   199   1   1  0.42      1.4323747470913084      124.28865537131655      50.059191409269701
   200   1   2 -0.42      2.1579563459125732      123.03341143476342      50.048615919961335
   201   1   1  0.42    -0.74299819043127613      125.54412975636909      50.059308634842345
   202   1   2 -0.42   -0.018916589063291193      126.79975421057647      50.048891824451481
   203   1   1  0.42      1.4307679790441383      126.79952073250193      50.059390687440022
   204   1   2 -0.42      2.1564918400084379      125.54426573198064      50.048812430899922
   205   1   1  0.42    -0.74468747640896849      128.05493551772568      50.059501910348168
   206   1   2 -0.42   -0.020709286341449359      129.31067147513303      50.049070438763941
   207   1   1  0.42      1.4289746637238943      129.31038589379992      50.059576076281076
   208   1   2 -0.42      2.1548025276740947      128.05524065683932      50.048999124528535
   209   1   1  0.42    -0.74662286812422929      130.56584752660095        50.0596772149716
   210   1   2 -0.42    -0.02282814000358422      131.82155104871066      50.049226865003568
   211   1   1  0.42      1.4268551220323371      131.82129943117943      50.059738779458343
   212   1   2 -0.42      2.1528681409970978      130.56611321456461      50.049167886691606
   213   1   1  0.42     -0.7489327945573877      133.07671537005112      50.059824539294105
   214   1   2 -0.42   -0.025322035636668766      134.33254730106557      50.049349566955648
   215   1   1  0.42      1.4243620111704285       134.3321223914254      50.059867429280516
   216   1   2 -0.42      2.1505578459849435      133.07705220926488      50.049309142625489
   217   1   1  0.42    -0.75163892951885936      135.58759441365672      50.059931166710015
   218   1   2 -0.42   -0.028278166012374876      136.84345417009692      50.049426250454943
   219   1   1  0.42      1.4214048895278451      136.84305032983687      50.059948936399643
   220   1   2 -0.42       2.147851732350591      135.58800047911808      50.049409987325312
   221   1   1  0.42     -0.7548658226709104      138.09848883611218      50.059983728096626
   222   1   2 -0.42   -0.031790457081255337      139.35445060374798      50.049442039505742
   223   1   1  0.42      1.4178940760497396      139.35391892011685      50.059968592613714
   224   1   2 -0.42       2.144624937905498      138.09895314733035      50.049458405909732
   225   1   1  0.42    -0.75868611305800659      140.60937350966174       50.05996625117146
   226   1   2 -0.42   -0.035955492289049845      141.86544292423085      50.049379913732835
   227   1   1  0.42      1.4137298565281937      141.86483120346654      50.059909555718285
   228   1   2 -0.42       2.140802670456162      140.60995408250025      50.049437214312945
   229   1   1  0.42    -0.76322403200014133      143.12029500372472      50.059860790778302
   230   1   2 -0.42   -0.040893533891836864      144.37646917395051      50.049221906820662
   231   1   1  0.42      1.4087915987676642        144.375739599502      50.059752719118599
   232   1   2 -0.42       2.136265056910609      143.12095306142544       50.04932953733605
   233   1   1  0.42    -0.76859157226236807      145.63119883928434      50.059647310738555
   234   1   2 -0.42   -0.046723442191623062      146.88752071406032      50.048947043210404
   235   1   1  0.42      1.4029631315493158      146.88665852587556      50.059477375744997
   236   1   2 -0.42      2.1308966042745427      145.63199987575268      50.049115658999732
   237   1   1  0.42    -0.77491760688791822      148.14213377078696      50.059304566036836
   238   1   2 -0.42   -0.053583898800198183       149.3986019178077      50.048533716321472
   239   1   1  0.42      1.3961039478506341      149.39759657831263      50.059061704366627
   240   1   2 -0.42       2.124569164170238      148.14305893725108        50.0487742374522
   241   1   1  0.42    -0.78234092570227687      150.65307128790437      50.058810145141443
   242   1   2 -0.42   -0.061608037119854422      151.90972245243549      50.047959287614894
   243   1   1  0.42       1.388081047709063       151.9085455957796      50.058482952473582
   244   1   2 -0.42      2.1171444167510063      150.65416604334141      50.048283070788472
   245   1   1  0.42    -0.79100284916361041      153.16403535833678      50.058141472775866
   246   1   2 -0.42   -0.070945519367496671      154.42087604977564      50.047201981341956
   247   1   1  0.42      1.3787448619442757      154.41951523846083      50.057719160585748
   248   1   2 -0.42      2.1084813441213068      153.16529741850513      50.047619758430997
   249   1   1  0.42    -0.80104772597312046      155.67501160881923      50.057277482794525
   250   1   2 -0.42   -0.081737664100205137      156.93207043589874      50.046241731838926
   251   1   1  0.42      1.3679543646648162      156.93050585728309      50.056750632834344
   252   1   2 -0.42      2.0984347854144199       155.6764744437271      50.046763136437932
   253   1   1  0.42    -0.81261983915005753       158.1860158744679      50.056200502006135
   254   1   2 -0.42   -0.094126202544944332      159.44330777299155      50.045063209532181
   255   1   1  0.42       1.355567499250967      159.44152143622128      50.055562310948744
   256   1   2 -0.42      2.0868610370997769      158.18768849537801      50.045695189947622
   257   1   1  0.42     -0.8258538802615546      160.69704574387359      50.054898774390502
   258   1   2 -0.42    -0.10824036232278816       161.9545905094765       50.04365843074298
   259   1   1  0.42      1.3414559128471892      161.95256835354104      50.054146639700072
   260   1   2 -0.42      2.0736249148910977       160.6989483485327      50.044403822324092
   261   1   1  0.42     -0.8408708225469127      163.20811145185553      50.053369909669833
   262   1   2 -0.42    -0.12419114051257386      164.46592651425445      50.042030488048162
   263   1   1  0.42      1.3255094223857469      164.46365554833733      50.052507370296915
   264   1   2 -0.42      2.0586045398657573      163.21025674239704      50.042886132861227
   265   1   1  0.42    -0.85776789188795466      165.71922328458388      50.051624838908225
   266   1   2 -0.42    -0.14206091717971792      166.97732214646351      50.040197595843729
   267   1   1  0.42       1.307645765651845      166.97479420054108      50.050663669038705
   268   1   2 -0.42      2.0417021726403926      165.72162195147212      50.041152229528542
   269   1   1  0.42    -0.87660960596002602        168.230390675487      50.049691982207165
   270   1   2 -0.42    -0.16189344605237535      169.48877941265184      50.038197274152729
   271   1   1  0.42      1.2878209328705548      169.48599147639752      50.048654159527054
   272   1   2 -0.42      2.0228534637996365      168.23304861681387      50.039229490019146
   273   1   1  0.42    -0.89741682821479496       170.7416186911218      50.047621009959933
   274   1   2 -0.42    -0.18368377229392044      172.00029483586971      50.036089764282856
   275   1   1  0.42      1.2660398116898102      171.99725051439694      50.046540237783745
   276   1   2 -0.42      2.0020377564880731      170.74453573114465      50.037166448739399
   277   1   1  0.42    -0.92015653192166535      173.25290918844115       50.04548550129595
   278   1   2 -0.42    -0.20736877875939702      174.51186155213571      50.033959806557519
   279   1   1  0.42      1.2423656399372474      174.50857247614465      50.044407823147431
   280   1   2 -0.42      1.9792880313839292      173.25607784618231      50.035035518014027
   281   1   1  0.42    -0.94473347762750881      175.76426290559266      50.043383475138604
   282   1   2 -0.42    -0.23281995326891544      177.02347122806631      50.031915558951248
   283   1   1  0.42      1.2169269920172288      177.01995786047334      50.042366298775129
   284   1   2 -0.42      1.9546994150636536      175.76766723448733      50.032933518490012
   285   1   1  0.42    -0.97098491814521593      178.27568011257421      50.041434346771972
   286   1   2 -0.42    -0.25983998157105498      179.53511448226169      50.030083155470287
   287   1   1  0.42      1.1899210214935008      179.53140654021973      50.040543096531806
   288   1   2 -0.42      1.9284347017831518      178.27929501822777      50.030978604410627
   289   1   1  0.42     -0.9986796637039419      180.78716005195682      50.039770798246508
   290   1   2 -0.42    -0.28816435634669874      182.04678086020579      50.028595626138795
   291   1   1  0.42      1.1616118503538464      182.04291693176748      50.039072606233105
   292   1   2 -0.42      1.9007253618934201      180.79095128966745      50.029302121323042
   293   1   1  0.42     -1.0275224379853924      183.29870012097669      50.038524634364947
   294   1   2 -0.42     -0.3174686097781822       184.5584589175846      50.027575939421467
   295   1   1  0.42      1.1323233873538625      184.55448528253467      50.038079113683111
   296   1   2 -0.42      1.8718671464290677      183.30262505876539      50.028034511937904
   297   1   1  0.42     -1.0571638407996067      185.81029532692196      50.037807275982885
   298   1   2 -0.42    -0.34738093832660244      187.07013667056736      50.027116185693018
   299   1   1  0.42      1.1024267413639643      187.06610533793022      50.037655743247697
   300   1   2 -0.42      1.8422100754458017      185.81430453251534      50.027285979683441
   301   1   1  0.42     -1.0872153075758877      188.32193815949233      50.037688490389641
   302   1   2 -0.42    -0.37749921941861697      189.58180226820838      50.027258183574745
   303   1   1  0.42      1.0723232229178747      189.57776838986348      50.037844709085924
   304   1   2 -0.42      1.8121434552422335       188.3259777006717      50.027125527582996
   305   1   1  0.42     -1.1172677507358786      190.83361879249844      50.038180131429733
   306   1   2 -0.42    -0.40741089546102843      192.09344469016551      50.027982933783932
   307   1   1  0.42      1.0424245099884397      192.08946361076758      50.038626459358881
   308   1   2 -0.42      1.7820772123158182      190.83763304295587      50.027565058266987
   309   1   1  0.42     -1.1469121132069982      193.34532553328515      50.039232185902584
   310   1   2 -0.42    -0.43671386034462173      194.60505432521018      50.029214394151325
   311   1   1  0.42      1.0131318696200893      194.60117859965669      50.039923372782503
   312   1   2 -0.42      1.7524212638009173      193.34926018271429      50.028555632410956
   313   1   1  0.42     -1.1757598797798721      195.85704544171088      50.040743897402898
   314   1   2 -0.42      -0.465036363012926      197.11662332763268      50.030836625826666
   315   1   1  0.42     0.98481639947326427      197.11290004656703      50.041617123226359
   316   1   2 -0.42      1.7235648767559306      195.86085036532086      50.029998518899745
   317   1   1  0.42     -1.2034616261477329      198.36876500658914      50.042585454867741
   318   1   2 -0.42    -0.49205403928285751       199.6281456717538      50.032717126298095
   319   1   1  0.42     0.95780211207927624      199.62461437926353      50.043572425405358