
320 atoms 
2 atom types
0 8.698359155610902 xlo xhi
0 50.22 ylo yhi
-100 100 zlo zhi

Masses

1 10.811
2 14.007

Atoms # full

1 1 1 0 -0.7248632629675752 0.0 50.0
161 2 1 0 0.7248632629675752 0.0 53.3306
2 1 2 0 1.1102230246251565e-16 1.2555 50.0
162 2 2 0 1.4497265259351506 1.2555 53.3306
3 1 1 0 1.4497265259351502 1.2555 50.0
163 2 1 0 2.8994530518703003 1.2555 53.3306
4 1 2 0 2.1745897889027255 0.0 50.0
164 2 2 0 3.624316314837876 0.0 53.3306
5 1 1 0 3.6243163148378756 0.0 50.0
165 2 1 0 5.074042840773026 0.0 53.3306
6 1 2 0 4.349179577805452 1.2555 50.0
166 2 2 0 5.7989061037406024 1.2555 53.3306
7 1 1 0 5.798906103740602 1.2555 50.0
167 2 1 0 7.248632629675752 1.2555 53.3306
8 1 2 0 6.523769366708177 0.0 50.0
168 2 2 0 7.973495892643328 0.0 53.3306
9 1 1 0 -0.805403625519528 2.511 50.0
169 2 1 0 0.805403625519528 2.511 53.3306
10 1 2 0 -0.08054036255195274 3.7665 50.0
170 2 2 0 1.5302668884871033 3.7665 53.3306
11 1 1 0 1.3691861633831974 3.7665 50.0
171 2 1 0 2.9799934144222533 3.7665 53.3306
12 1 2 0 2.0940494263507725 2.511 50.0
172 2 2 0 3.7048566773898286 2.511 53.3306
13 1 1 0 3.543775952285923 2.511 50.0
173 2 1 0 5.154583203324979 2.511 53.3306
14 1 2 0 4.268639215253499 3.7665 50.0
174 2 2 0 5.8794464662925545 3.7665 53.3306
15 1 1 0 5.718365741188649 3.7665 50.0
175 2 1 0 7.329172992227704 3.7665 53.3306
16 1 2 0 6.443229004156224 2.511 50.0
176 2 2 0 8.05403625519528 2.511 53.3306
17 1 1 0 -0.8859439880714808 5.022 50.0
177 2 1 0 0.8859439880714808 5.022 53.3306
18 1 2 0 -0.16108072510390548 6.2775 50.0
178 2 2 0 1.610807251039056 6.2775 53.3306
19 1 1 0 1.2886458008312447 6.2775 50.0
179 2 1 0 3.0605337769742063 6.2775 53.3306
20 1 2 0 2.01350906379882 5.022 50.0
180 2 2 0 3.7853970399417816 5.022 53.3306
21 1 1 0 3.46323558973397 5.022 50.0
181 2 1 0 5.235123565876932 5.022 53.3306
22 1 2 0 4.188098852701546 6.2775 50.0
182 2 2 0 5.9599868288445075 6.2775 53.3306
23 1 1 0 5.637825378636696 6.2775 50.0
183 2 1 0 7.409713354779657 6.2775 53.3306
24 1 2 0 6.362688641604271 5.022 50.0
184 2 2 0 8.134576617747232 5.022 53.3306
25 1 1 0 -0.9664843506234335 7.533 50.0
185 2 1 0 0.9664843506234335 7.533 53.3306
26 1 2 0 -0.2416210876558582 8.7885 50.0
186 2 2 0 1.6913476135910088 8.7885 53.3306
27 1 1 0 1.208105438279292 8.7885 50.0
187 2 1 0 3.141074139526159 8.7885 53.3306
28 1 2 0 1.9329687012468673 7.533000000000001 50.0
188 2 2 0 3.865937402493734 7.533000000000001 53.3306
29 1 1 0 3.382695227182017 7.533 50.0
189 2 1 0 5.315663928428885 7.533 53.3306
30 1 2 0 4.107558490149593 8.7885 50.0
190 2 2 0 6.04052719139646 8.7885 53.3306
31 1 1 0 5.557285016084743 8.7885 50.0
191 2 1 0 7.49025371733161 8.7885 53.3306
32 1 2 0 6.282148279052318 7.533000000000001 50.0
192 2 2 0 8.215116980299186 7.533000000000001 53.3306
33 1 1 0 -1.0470247131753863 10.044 50.0
193 2 1 0 1.0470247131753863 10.044 53.3306
34 1 2 0 -0.32216145020781095 11.2995 50.0
194 2 2 0 1.7718879761429616 11.2995 53.3306
35 1 1 0 1.1275650757273392 11.2995 50.0
195 2 1 0 3.2216145020781117 11.2995 53.3306
36 1 2 0 1.8524283386949145 10.044 50.0
196 2 2 0 3.946477765045687 10.044 53.3306
37 1 1 0 3.3021548646300647 10.044 50.0
197 2 1 0 5.396204290980837 10.044 53.3306
38 1 2 0 4.027018127597641 11.2995 50.0
198 2 2 0 6.121067553948413 11.2995 53.3306
39 1 1 0 5.476744653532791 11.2995 50.0
199 2 1 0 7.570794079883563 11.2995 53.3306
40 1 2 0 6.201607916500366 10.044 50.0
200 2 2 0 8.29565734285114 10.044 53.3306
41 1 1 0 -1.1275650757273392 12.555 50.0
201 2 1 0 1.1275650757273392 12.555 53.3306
42 1 2 0 -0.4027018127597639 13.8105 50.0
202 2 2 0 1.8524283386949145 13.8105 53.3306
43 1 1 0 1.0470247131753863 13.8105 50.0
203 2 1 0 3.3021548646300647 13.8105 53.3306
44 1 2 0 1.7718879761429616 12.555 50.0
204 2 2 0 4.02701812759764 12.555 53.3306
45 1 1 0 3.2216145020781117 12.555 50.0
205 2 1 0 5.476744653532791 12.555 53.3306
46 1 2 0 3.9464777650456875 13.8105 50.0
206 2 2 0 6.201607916500366 13.8105 53.3306
47 1 1 0 5.396204290980837 13.8105 50.0
207 2 1 0 7.651334442435515 13.8105 53.3306
48 1 2 0 6.1210675539484125 12.555 50.0
208 2 2 0 8.37619770540309 12.555 53.3306
49 1 1 0 -1.208105438279292 15.066 50.0
209 2 1 0 1.208105438279292 15.066 53.3306
50 1 2 0 -0.48324217531171665 16.3215 50.0
210 2 2 0 1.9329687012468673 16.3215 53.3306
51 1 1 0 0.9664843506234335 16.3215 50.0
211 2 1 0 3.382695227182017 16.3215 53.3306
52 1 2 0 1.6913476135910088 15.066 50.0
212 2 2 0 4.107558490149593 15.066 53.3306
53 1 1 0 3.141074139526159 15.066 50.0
213 2 1 0 5.557285016084743 15.066 53.3306
54 1 2 0 3.865937402493735 16.3215 50.0
214 2 2 0 6.282148279052318 16.3215 53.3306
55 1 1 0 5.315663928428885 16.3215 50.0
215 2 1 0 7.731874804987468 16.3215 53.3306
56 1 2 0 6.04052719139646 15.066 50.0
216 2 2 0 8.456738067955044 15.066 53.3306
57 1 1 0 -1.2886458008312447 17.577 50.0
217 2 1 0 1.2886458008312447 17.577 53.3306
58 1 2 0 -0.5637825378636694 18.832500000000003 50.0
218 2 2 0 2.01350906379882 18.832500000000003 53.3306
59 1 1 0 0.8859439880714808 18.832500000000003 50.0
219 2 1 0 3.46323558973397 18.832500000000003 53.3306
60 1 2 0 1.610807251039056 17.577 50.0
220 2 2 0 4.188098852701545 17.577 53.3306
61 1 1 0 3.0605337769742063 17.577 50.0
221 2 1 0 5.637825378636696 17.577 53.3306
62 1 2 0 3.785397039941782 18.832500000000003 50.0
222 2 2 0 6.362688641604271 18.832500000000003 53.3306
63 1 1 0 5.235123565876932 18.832500000000003 50.0
223 2 1 0 7.812415167539421 18.832500000000003 53.3306
64 1 2 0 5.9599868288445075 17.577 50.0
224 2 2 0 8.537278430506998 17.577 53.3306
65 1 1 0 -1.3691861633831974 20.088 50.0
225 2 1 0 1.3691861633831974 20.088 53.3306
66 1 2 0 -0.6443229004156221 21.343500000000002 50.0
226 2 2 0 2.0940494263507725 21.343500000000002 53.3306
67 1 1 0 0.805403625519528 21.343500000000002 50.0
227 2 1 0 3.543775952285923 21.343500000000002 53.3306
68 1 2 0 1.5302668884871033 20.088 50.0
228 2 2 0 4.268639215253498 20.088 53.3306
69 1 1 0 2.9799934144222533 20.088 50.0
229 2 1 0 5.718365741188649 20.088 53.3306
70 1 2 0 3.704856677389829 21.343500000000002 50.0
230 2 2 0 6.443229004156224 21.343500000000002 53.3306
71 1 1 0 5.154583203324979 21.343500000000002 50.0
231 2 1 0 7.892955530091374 21.343500000000002 53.3306
72 1 2 0 5.8794464662925545 20.088 50.0
232 2 2 0 8.61781879305895 20.088 53.3306
73 1 1 0 -1.4497265259351504 22.599 50.0
233 2 1 0 1.4497265259351504 22.599 53.3306
74 1 2 0 -0.7248632629675751 23.8545 50.0
234 2 2 0 2.1745897889027255 23.8545 53.3306
75 1 1 0 0.7248632629675751 23.8545 50.0
235 2 1 0 3.624316314837876 23.8545 53.3306
76 1 2 0 1.4497265259351504 22.599 50.0
236 2 2 0 4.349179577805451 22.599 53.3306
77 1 1 0 2.8994530518703003 22.599 50.0
237 2 1 0 5.798906103740601 22.599 53.3306
78 1 2 0 3.624316314837876 23.8545 50.0
238 2 2 0 6.523769366708176 23.8545 53.3306
79 1 1 0 5.074042840773026 23.8545 50.0
239 2 1 0 7.973495892643326 23.8545 53.3306
80 1 2 0 5.798906103740602 22.599 50.0
240 2 2 0 8.698359155610902 22.599 53.3306
81 1 1 0 -1.4497265259351502 25.11 50.0
241 2 1 0 1.4497265259351502 25.11 53.3306
82 1 2 0 -0.7248632629675749 26.3655 50.0
242 2 2 0 2.1745897889027255 26.3655 53.3306
83 1 1 0 0.7248632629675753 26.3655 50.0
243 2 1 0 3.6243163148378756 26.3655 53.3306
84 1 2 0 1.4497265259351506 25.11 50.0
244 2 2 0 4.349179577805451 25.11 53.3306
85 1 1 0 2.899453051870301 25.11 50.0
245 2 1 0 5.798906103740601 25.11 53.3306
86 1 2 0 3.6243163148378765 26.3655 50.0
246 2 2 0 6.523769366708176 26.3655 53.3306
87 1 1 0 5.074042840773027 26.3655 50.0
247 2 1 0 7.973495892643327 26.3655 53.3306
88 1 2 0 5.7989061037406024 25.11 50.0
248 2 2 0 8.698359155610902 25.11 53.3306
89 1 1 0 -1.4899967072111266 27.69075 50.0
249 2 1 0 1.4899967072111266 27.55125 53.3306
90 1 2 0 -0.7651334442435513 28.946250000000003 50.0
250 2 2 0 2.214859970178702 28.80675 53.3306
91 1 1 0 0.6845930816915988 28.946250000000003 50.0
251 2 1 0 3.664586496113852 28.80675 53.3306
92 1 2 0 1.4094563446591741 27.69075 50.0
252 2 2 0 4.389449759081428 27.55125 53.3306
93 1 1 0 2.8591828705943243 27.69075 50.0
253 2 1 0 5.839176285016578 27.55125 53.3306
94 1 2 0 3.5840461335619 28.946250000000003 50.0
254 2 2 0 6.564039547984153 28.80675 53.3306
95 1 1 0 5.03377265949705 28.946250000000003 50.0
255 2 1 0 8.013766073919303 28.80675 53.3306
96 1 2 0 5.7586359224646255 27.69075 50.0
256 2 2 0 8.738629336886879 27.55125 53.3306
97 1 1 0 -1.5302668884871031 30.271500000000003 50.0
257 2 1 0 1.5302668884871031 29.992500000000003 53.3306
98 1 2 0 -0.8054036255195278 31.527000000000005 50.0
258 2 2 0 2.2551301514546784 31.248000000000005 53.3306
99 1 1 0 0.6443229004156223 31.527000000000005 50.0
259 2 1 0 3.7048566773898286 31.248000000000005 53.3306
100 1 2 0 1.3691861633831977 30.271500000000003 50.0
260 2 2 0 4.429719940357404 29.992500000000003 53.3306
101 1 1 0 2.818912689318348 30.271500000000003 50.0
261 2 1 0 5.8794464662925545 29.992500000000003 53.3306
102 1 2 0 3.5437759522859236 31.527000000000005 50.0
262 2 2 0 6.60430972926013 31.248000000000005 53.3306
103 1 1 0 4.993502478221073 31.527000000000005 50.0
263 2 1 0 8.054036255195278 31.248000000000005 53.3306
104 1 2 0 5.718365741188649 30.271500000000003 50.0
264 2 2 0 8.778899518162856 29.992500000000003 53.3306
105 1 1 0 -1.5705370697630796 32.85225 50.0
265 2 1 0 1.5705370697630796 32.433749999999996 53.3306
106 1 2 0 -0.8456738067955043 34.107749999999996 50.0
266 2 2 0 2.295400332730655 33.689249999999994 53.3306
107 1 1 0 0.6040527191396459 34.107749999999996 50.0
267 2 1 0 3.745126858665805 33.689249999999994 53.3306
108 1 2 0 1.3289159821072212 32.85225 50.0
268 2 2 0 4.46999012163338 32.433749999999996 53.3306
109 1 1 0 2.7786425080423713 32.85225 50.0
269 2 1 0 5.9197166475685306 32.433749999999996 53.3306
110 1 2 0 3.503505771009947 34.107749999999996 50.0
270 2 2 0 6.644579910536106 33.689249999999994 53.3306
111 1 1 0 4.953232296945097 34.107749999999996 50.0
271 2 1 0 8.094306436471257 33.689249999999994 53.3306
112 1 2 0 5.678095559912673 32.85225 50.0
272 2 2 0 8.819169699438831 32.433749999999996 53.3306
113 1 1 0 -1.6108072510390559 35.43300000000001 50.0
273 2 1 0 1.6108072510390559 34.87500000000001 53.3306
114 1 2 0 -0.8859439880714806 36.688500000000005 50.0
274 2 2 0 2.3356705140066314 36.130500000000005 53.3306
115 1 1 0 0.5637825378636696 36.688500000000005 50.0
275 2 1 0 3.785397039941781 36.130500000000005 53.3306
116 1 2 0 1.288645800831245 35.43300000000001 50.0
276 2 2 0 4.510260302909357 34.87500000000001 53.3306
117 1 1 0 2.7383723267663953 35.43300000000001 50.0
277 2 1 0 5.959986828844507 34.87500000000001 53.3306
118 1 2 0 3.463235589733971 36.688500000000005 50.0
278 2 2 0 6.684850091812082 36.130500000000005 53.3306
119 1 1 0 4.912962115669121 36.688500000000005 50.0
279 2 1 0 8.134576617747232 36.130500000000005 53.3306
120 1 2 0 5.6378253786366965 35.43300000000001 50.0
280 2 2 0 8.859439880714808 34.87500000000001 53.3306
121 1 1 0 -1.6510774323150323 38.01375 50.0
281 2 1 0 1.6510774323150323 37.316250000000004 53.3306
122 1 2 0 -0.926214169347457 39.26925 50.0
282 2 2 0 2.3759406952826074 38.57175 53.3306
123 1 1 0 0.5235123565876931 39.26925 50.0
283 2 1 0 3.825667221217758 38.57175 53.3306
124 1 2 0 1.2483756195552684 38.01375 50.0
284 2 2 0 4.550530484185333 37.316250000000004 53.3306
125 1 1 0 2.6981021454904184 38.01375 50.0
285 2 1 0 6.0002570101204835 37.316250000000004 53.3306
126 1 2 0 3.422965408457994 39.26925 50.0
286 2 2 0 6.725120273088059 38.57175 53.3306
127 1 1 0 4.872691934393144 39.26925 50.0
287 2 1 0 8.174846799023209 38.57175 53.3306
128 1 2 0 5.59755519736072 38.01375 50.0
288 2 2 0 8.899710061990785 37.316250000000004 53.3306
129 1 1 0 -1.6913476135910086 40.594500000000004 50.0
289 2 1 0 1.6913476135910086 39.7575 53.3306
130 1 2 0 -0.9664843506234333 41.85 50.0
290 2 2 0 2.416210876558584 41.013 53.3306
131 1 1 0 0.48324217531171687 41.85 50.0
291 2 1 0 3.865937402493734 41.013 53.3306
132 1 2 0 1.2081054382792922 40.594500000000004 50.0
292 2 2 0 4.590800665461309 39.7575 53.3306
133 1 1 0 2.6578319642144423 40.594500000000004 50.0
293 2 1 0 6.0405271913964595 39.7575 53.3306
134 1 2 0 3.382695227182018 41.85 50.0
294 2 2 0 6.765390454364035 41.013 53.3306
135 1 1 0 4.832421753117168 41.85 50.0
295 2 1 0 8.215116980299186 41.013 53.3306
136 1 2 0 5.557285016084744 40.594500000000004 50.0
296 2 2 0 8.93998024326676 39.7575 53.3306
137 1 1 0 -1.731617794866985 43.175250000000005 50.0
297 2 1 0 1.731617794866985 42.198750000000004 53.3306
138 1 2 0 -1.0067545318994098 44.43075 50.0
298 2 2 0 2.4564810578345604 43.45425 53.3306
139 1 1 0 0.4429719940357404 44.43075 50.0
299 2 1 0 3.9062075837697106 43.45425 53.3306
140 1 2 0 1.1678352570033157 43.175250000000005 50.0
300 2 2 0 4.631070846737286 42.198750000000004 53.3306
141 1 1 0 2.617561782938466 43.175250000000005 50.0
301 2 1 0 6.080797372672436 42.198750000000004 53.3306
142 1 2 0 3.3424250459060416 44.43075 50.0
302 2 2 0 6.805660635640011 43.45425 53.3306
143 1 1 0 4.792151571841192 44.43075 50.0
303 2 1 0 8.255387161575161 43.45425 53.3306
144 1 2 0 5.5170148348087675 43.175250000000005 50.0
304 2 2 0 8.980250424542739 42.198750000000004 53.3306
145 1 1 0 -1.7718879761429616 45.756 50.0
305 2 1 0 1.7718879761429616 44.64 53.3306
146 1 2 0 -1.0470247131753863 47.0115 50.0
306 2 2 0 2.496751239110537 45.8955 53.3306
147 1 1 0 0.4027018127597639 47.0115 50.0
307 2 1 0 3.946477765045687 45.8955 53.3306
148 1 2 0 1.1275650757273392 45.756 50.0
308 2 2 0 4.671341028013263 44.64 53.3306
149 1 1 0 2.5772916016624894 45.756 50.0
309 2 1 0 6.1210675539484125 44.64 53.3306
150 1 2 0 3.302154864630065 47.0115 50.0
310 2 2 0 6.845930816915988 45.8955 53.3306
151 1 1 0 4.751881390565215 47.0115 50.0
311 2 1 0 8.295657342851138 45.8955 53.3306
152 1 2 0 5.476744653532791 45.756 50.0
312 2 2 0 9.020520605818714 44.64 53.3306
153 1 1 0 -1.812158157418938 48.33675 50.0
313 2 1 0 1.812158157418938 47.081250000000004 53.3306
154 1 2 0 -1.0872948944513627 49.59225 50.0
314 2 2 0 2.5370214203865133 48.33675 53.3306
155 1 1 0 0.36243163148378743 49.59225 50.0
315 2 1 0 3.9867479463216635 48.33675 53.3306
156 1 2 0 1.0872948944513627 48.33675 50.0
316 2 2 0 4.711611209289239 47.081250000000004 53.3306
157 1 1 0 2.537021420386513 48.33675 50.0
317 2 1 0 6.161337735224389 47.081250000000004 53.3306
158 1 2 0 3.2618846833540887 49.59225 50.0
318 2 2 0 6.886200998191965 48.33675 53.3306
159 1 1 0 4.711611209289238 49.59225 50.0
319 2 1 0 8.335927524127115 48.33675 53.3306
160 1 2 0 5.436474472256814 48.33675 50.0
320 2 2 0 9.060790787094689 47.081250000000004 53.3306
