LAMMPS (29 Aug 2024)
OMP_NUM_THREADS environment is not set. Defaulting to 1 thread. (src/comm.cpp:98)
  using 1 OpenMP thread(s) per MPI task
Reading data file ...
  orthogonal box = (0 0 0) to (4.3491796 753.3 200)
  1 by 1 by 1 MPI processor grid
  reading atoms ...
  2400 atoms
  reading velocities ...
  2400 velocities
Finding 1-2 1-3 1-4 neighbors ...
  special bond factors lj:    0        0        0       
  special bond factors coul:  0        0        0       
     0 = max # of 1-2 neighbors
     0 = max # of 1-3 neighbors
     0 = max # of 1-4 neighbors
     1 = max # of special neighbors
  special bonds CPU = 0.000 seconds
  read_data CPU = 0.009 seconds
Reading ExTeP potential file /home/zanko/mylammps/potentials/BN.extep with DATE: 2017-11-28
Reading ilp/graphene/hbn potential file /home/zanko/mylammps/potentials/BNCH.ILP with DATE: 2020-01-16
Starting simulation...

CITE-CITE-CITE-CITE-CITE-CITE-CITE-CITE-CITE-CITE-CITE-CITE-CITE

Your simulation uses code contributions which should be cited:
- Type Label Framework: https://doi.org/10.1021/acs.jpcb.3c08419
- ilp/graphene/hbn potential doi:10.1021/acs.nanolett.8b02848
- ilp/graphene/hbn/opt potential doi:10.1145/3458817.3476137
The log file lists these citations in BibTeX format.

CITE-CITE-CITE-CITE-CITE-CITE-CITE-CITE-CITE-CITE-CITE-CITE-CITE

Neighbor list info ...
  update: every = 1 steps, delay = 0 steps, check = yes
  max neighbors/atom: 2000, page size: 100000
  master list distance cutoff = 18
  ghost atom cutoff = 18
  binsize = 9, bins = 1 84 23
  3 neighbor lists, perpetual/occasional/extra = 3 0 0
  (1) pair extep, perpetual
      attributes: full, newton on, ghost, cut 4.2
      pair build: full/bin/ghost
      stencil: full/ghost/bin/3d
      bin: standard
  (2) pair ilp/graphene/hbn/opt, perpetual
      attributes: full, newton on
      pair build: full/bin
      stencil: full/bin/3d
      bin: standard
  (3) pair coul/shield, perpetual, half/full from (2)
      attributes: half, newton on
      pair build: halffull/newton
      stencil: none
      bin: none
Setting up Verlet run ...
  Unit style    : metal
  Current step  : 0
  Time step     : 0.001
20591
1 2400
Atom 0 local index -1 global ID 0 type 0 has 0 neighbors.
Atom 1 local index 14756 global ID 187 type 1 has 14872 neighbors.
Atom 2 local index 14769 global ID 1386 type 2 has 14873 neighbors.
Atom 3 local index 14770 global ID 1387 type 1 has 14884 neighbors.
Atom 4 local index 14771 global ID 1388 type 2 has 14887 neighbors.
Atom 5 local index 9950 global ID 181 type 1 has 10065 neighbors.
Atom 6 local index 9951 global ID 182 type 2 has 10068 neighbors.
Atom 7 local index 9952 global ID 183 type 1 has 10069 neighbors.
Atom 8 local index 9953 global ID 184 type 2 has 10070 neighbors.
Atom 9 local index 9954 global ID 185 type 1 has 10071 neighbors.
Atom 10 local index 9955 global ID 186 type 2 has 10072 neighbors.
Atom 11 local index 9956 global ID 187 type 1 has 10073 neighbors.
Atom 12 local index 9957 global ID 188 type 2 has 10080 neighbors.
Atom 13 local index 9962 global ID 1379 type 1 has 10082 neighbors.
Atom 14 local index 9964 global ID 1381 type 1 has 10083 neighbors.
Atom 15 local index 9965 global ID 1382 type 2 has 10084 neighbors.
Atom 16 local index 9966 global ID 1383 type 1 has 10085 neighbors.
Atom 17 local index 9967 global ID 1384 type 2 has 10086 neighbors.
Atom 18 local index 9968 global ID 1385 type 1 has 10087 neighbors.
Atom 19 local index 9969 global ID 1386 type 2 has 5264 neighbors.
Atom 20 local index 9970 global ID 1387 type 1 has 5265 neighbors.
Atom 21 local index 9971 global ID 1388 type 2 has 5266 neighbors.
Atom 22 local index 5146 global ID 177 type 1 has 5268 neighbors.
Atom 23 local index 5147 global ID 178 type 2 has 5269 neighbors.
Atom 24 local index 5148 global ID 179 type 1 has 5270 neighbors.
Atom 25 local index 5149 global ID 180 type 2 has 5271 neighbors.
Atom 26 local index 5150 global ID 181 type 1 has 5272 neighbors.
Atom 27 local index 5151 global ID 182 type 2 has 5273 neighbors.
Atom 28 local index 5152 global ID 183 type 1 has 5279 neighbors.
Atom 29 local index 5153 global ID 184 type 2 has 5280 neighbors.
Atom 30 local index 5154 global ID 185 type 1 has 5281 neighbors.
Atom 31 local index 5155 global ID 186 type 2 has 5282 neighbors.
Atom 32 local index 5156 global ID 187 type 1 has 5283 neighbors.
Atom 33 local index 5157 global ID 188 type 2 has 5284 neighbors.
Atom 34 local index 5160 global ID 1377 type 1 has 5285 neighbors.
Atom 35 local index 5161 global ID 1378 type 2 has 5286 neighbors.
Atom 36 local index 5162 global ID 1379 type 1 has 5287 neighbors.
Atom 37 local index 5163 global ID 1380 type 2 has 465 neighbors.
Atom 38 local index 5164 global ID 1381 type 1 has 466 neighbors.
Atom 39 local index 5165 global ID 1382 type 2 has 467 neighbors.
Atom 40 local index 5166 global ID 1383 type 1 has 468 neighbors.
Atom 41 local index 5167 global ID 1384 type 2 has 469 neighbors.
Atom 42 local index 5168 global ID 1385 type 1 has 470 neighbors.
Atom 43 local index 5169 global ID 1386 type 2 has 471 neighbors.
Atom 44 local index 5170 global ID 1387 type 1 has 472 neighbors.
Atom 45 local index 5171 global ID 1388 type 2 has 473 neighbors.
Atom 46 local index 345 global ID 175 type 1 has 478 neighbors.
Atom 47 local index 346 global ID 177 type 1 has 479 neighbors.
Atom 48 local index 347 global ID 178 type 2 has 480 neighbors.
Atom 49 local index 348 global ID 179 type 1 has 481 neighbors.
Atom 50 local index 349 global ID 180 type 2 has 482 neighbors.
Atom 51 local index 350 global ID 181 type 1 has 483 neighbors.
Atom 52 local index 351 global ID 182 type 2 has 484 neighbors.
Atom 53 local index 352 global ID 183 type 1 has 485 neighbors.
Atom 54 local index 353 global ID 184 type 2 has 486 neighbors.
Atom 55 local index 354 global ID 185 type 1 has 487 neighbors.
Atom 56 local index 355 global ID 186 type 2 has 2866 neighbors.
Atom 57 local index 356 global ID 187 type 1 has 2868 neighbors.
Atom 58 local index 357 global ID 188 type 2 has 2869 neighbors.
Atom 59 local index 358 global ID 1374 type 2 has 2870 neighbors.
Atom 60 local index 359 global ID 1375 type 1 has 2871 neighbors.
Atom 61 local index 360 global ID 1377 type 1 has 2872 neighbors.
Atom 62 local index 361 global ID 1378 type 2 has 2873 neighbors.
Atom 63 local index 362 global ID 1379 type 1 has 2879 neighbors.
Atom 64 local index 363 global ID 1380 type 2 has 2880 neighbors.
Atom 65 local index 364 global ID 1381 type 1 has 2882 neighbors.
Atom 66 local index 365 global ID 1382 type 2 has 2883 neighbors.
Atom 67 local index 366 global ID 1383 type 1 has 2884 neighbors.
Atom 68 local index 367 global ID 1384 type 2 has 2885 neighbors.
Atom 69 local index 368 global ID 1385 type 1 has 2886 neighbors.
Atom 70 local index 369 global ID 1386 type 2 has 2887 neighbors.
Atom 71 local index 370 global ID 1387 type 1 has 7670 neighbors.
Atom 72 local index 371 global ID 1388 type 2 has 7672 neighbors.
Atom 73 local index 2744 global ID 174 type 2 has 7673 neighbors.
Atom 74 local index 2746 global ID 177 type 1 has 7682 neighbors.
Atom 75 local index 2747 global ID 178 type 2 has 7683 neighbors.
Atom 76 local index 2748 global ID 179 type 1 has 7684 neighbors.
Atom 77 local index 2749 global ID 180 type 2 has 7686 neighbors.
Atom 78 local index 2750 global ID 181 type 1 has 7687 neighbors.
Atom 79 local index 2751 global ID 182 type 2 has 19691 neighbors.
Atom 80 local index 2752 global ID 183 type 1 has 19694 neighbors.
Atom 81 local index 2753 global ID 184 type 2 has 19695 neighbors.
Atom 82 local index 2754 global ID 185 type 1 has 19698 neighbors.
Atom 83 local index 2755 global ID 186 type 2 has 19699 neighbors.
Atom 84 local index 2756 global ID 187 type 1 has 19700 neighbors.
Atom 85 local index 2757 global ID 188 type 2 has 19701 neighbors.
Atom 86 local index 2758 global ID 1374 type 2 has 19702 neighbors.
Atom 87 local index 2760 global ID 1377 type 1 has 19703 neighbors.
Atom 88 local index 2761 global ID 1378 type 2 has 19708 neighbors.
Atom 89 local index 2762 global ID 1379 type 1 has 19709 neighbors.
Atom 90 local index 2763 global ID 1380 type 2 has 19711 neighbors.
Atom 91 local index 2764 global ID 1381 type 1 has 19712 neighbors.
Atom 92 local index 2765 global ID 1382 type 2 has 19713 neighbors.
Atom 93 local index 2766 global ID 1383 type 1 has 19715 neighbors.
Atom 94 local index 2767 global ID 1384 type 2 has 19716 neighbors.
Atom 95 local index 2768 global ID 1385 type 1 has 19717 neighbors.
Atom 96 local index 2769 global ID 1386 type 2 has 19718 neighbors.
Atom 97 local index 2770 global ID 1387 type 1 has 19719 neighbors.
Atom 98 local index 2771 global ID 1388 type 2 has 14888 neighbors.
Atom 99 local index 7547 global ID 178 type 2 has 14889 neighbors.
Atom 100 local index 7548 global ID 179 type 1 has 14890 neighbors.
Atom 101 local index 7550 global ID 181 type 1 has 14891 neighbors.
Atom 102 local index 7551 global ID 182 type 2 has 14892 neighbors.
Atom 103 local index 7552 global ID 183 type 1 has 14893 neighbors.
Atom 104 local index 7553 global ID 184 type 2 has 14894 neighbors.
Atom 105 local index 7554 global ID 185 type 1 has 14895 neighbors.
Atom 106 local index 7555 global ID 186 type 2 has 14896 neighbors.
Atom 107 local index 7556 global ID 187 type 1 has 14897 neighbors.
Atom 108 local index 7557 global ID 188 type 2 has 14898 neighbors.
Atom 109 local index 7560 global ID 1377 type 1 has 14899 neighbors.
Atom 110 local index 7561 global ID 1378 type 2 has 14900 neighbors.
Atom 111 local index 7562 global ID 1379 type 1 has 14901 neighbors.
Atom 112 local index 7564 global ID 1381 type 1 has 14902 neighbors.
Atom 113 local index 7565 global ID 1382 type 2 has 14903 neighbors.
Atom 114 local index 7566 global ID 1383 type 1 has 14904 neighbors.
Atom 115 local index 7567 global ID 1384 type 2 has 14905 neighbors.
Atom 116 local index 7568 global ID 1385 type 1 has 14906 neighbors.
Atom 117 local index 7569 global ID 1386 type 2 has 14907 neighbors.
Atom 118 local index 7570 global ID 1387 type 1 has 14908 neighbors.
Atom 119 local index 7571 global ID 1388 type 2 has 14909 neighbors.
Atom 120 local index 12351 global ID 182 type 2 has 14910 neighbors.
Atom 121 local index 12352 global ID 183 type 1 has 14911 neighbors.
Atom 122 local index 12355 global ID 186 type 2 has 14912 neighbors.
Atom 123 local index 12356 global ID 187 type 1 has 14913 neighbors.
Atom 124 local index 12357 global ID 188 type 2 has 14914 neighbors.
Atom 125 local index 12364 global ID 1381 type 1 has 14915 neighbors.
Atom 126 local index 12365 global ID 1382 type 2 has 14916 neighbors.
Atom 127 local index 12368 global ID 1385 type 1 has 14917 neighbors.
Atom 128 local index 12369 global ID 1386 type 2 has 14918 neighbors.
Atom 129 local index 12370 global ID 1387 type 1 has 14919 neighbors.
Atom 130 local index 12371 global ID 1388 type 2 has 10088 neighbors.
Atom 131 local index 17155 global ID 186 type 2 has 10089 neighbors.
Atom 132 local index 19573 global ID 190 type 2 has 10090 neighbors.
Atom 133 local index 19577 global ID 194 type 2 has 10091 neighbors.
Atom 134 local index 19580 global ID 197 type 1 has 10092 neighbors.
Atom 135 local index 19581 global ID 198 type 2 has 10093 neighbors.
Atom 136 local index 19584 global ID 201 type 1 has 10094 neighbors.
Atom 137 local index 19585 global ID 202 type 2 has 10095 neighbors.
Atom 138 local index 19595 global ID 1396 type 2 has 10096 neighbors.
Atom 139 local index 19598 global ID 1399 type 1 has 10097 neighbors.
Atom 140 local index 19599 global ID 1400 type 2 has 10098 neighbors.
Atom 141 local index 19602 global ID 1403 type 1 has 10099 neighbors.
Atom 142 local index 19603 global ID 1404 type 2 has 10100 neighbors.
Atom 143 local index 14772 global ID 189 type 1 has 10101 neighbors.
Atom 144 local index 14773 global ID 190 type 2 has 10102 neighbors.
Atom 145 local index 14774 global ID 191 type 1 has 10103 neighbors.
Atom 146 local index 14775 global ID 192 type 2 has 10104 neighbors.
Atom 147 local index 14776 global ID 193 type 1 has 10105 neighbors.
Atom 148 local index 14777 global ID 194 type 2 has 10106 neighbors.
Atom 149 local index 14778 global ID 195 type 1 has 10107 neighbors.
Atom 150 local index 14779 global ID 196 type 2 has 10108 neighbors.
Atom 151 local index 14780 global ID 197 type 1 has 10109 neighbors.
Atom 152 local index 14781 global ID 198 type 2 has 10110 neighbors.
Atom 153 local index 14782 global ID 199 type 1 has 10111 neighbors.
Atom 154 local index 14783 global ID 200 type 2 has 10112 neighbors.
Atom 155 local index 14784 global ID 201 type 1 has 10113 neighbors.
Atom 156 local index 14785 global ID 202 type 2 has 10114 neighbors.
Atom 157 local index 14786 global ID 203 type 1 has 10115 neighbors.
Atom 158 local index 14787 global ID 204 type 2 has 10116 neighbors.
Atom 159 local index 14788 global ID 1389 type 1 has 10117 neighbors.
Atom 160 local index 14789 global ID 1390 type 2 has 10118 neighbors.
Atom 161 local index 14790 global ID 1391 type 1 has 10119 neighbors.
Atom 162 local index 14791 global ID 1392 type 2 has 5288 neighbors.
Atom 163 local index 14792 global ID 1393 type 1 has 5289 neighbors.
Atom 164 local index 14793 global ID 1394 type 2 has 5290 neighbors.
Atom 165 local index 14794 global ID 1395 type 1 has 5291 neighbors.
Atom 166 local index 14795 global ID 1396 type 2 has 5292 neighbors.
Atom 167 local index 14796 global ID 1397 type 1 has 5293 neighbors.
Atom 168 local index 14797 global ID 1398 type 2 has 5294 neighbors.
Atom 169 local index 14798 global ID 1399 type 1 has 5295 neighbors.
Atom 170 local index 14799 global ID 1400 type 2 has 5296 neighbors.
Atom 171 local index 14800 global ID 1401 type 1 has 5297 neighbors.
Atom 172 local index 14801 global ID 1402 type 2 has 5298 neighbors.
Atom 173 local index 14802 global ID 1403 type 1 has 5299 neighbors.
Atom 174 local index 14803 global ID 1404 type 2 has 5300 neighbors.
Atom 175 local index 9972 global ID 189 type 1 has 5301 neighbors.
Atom 176 local index 9973 global ID 190 type 2 has 5302 neighbors.
Atom 177 local index 9974 global ID 191 type 1 has 5303 neighbors.
Atom 178 local index 9975 global ID 192 type 2 has 5304 neighbors.
Atom 179 local index 9976 global ID 193 type 1 has 5305 neighbors.
Atom 180 local index 9977 global ID 194 type 2 has 5306 neighbors.
Atom 181 local index 9978 global ID 195 type 1 has 5307 neighbors.
Atom 182 local index 9979 global ID 196 type 2 has 5308 neighbors.
Atom 183 local index 9980 global ID 197 type 1 has 5309 neighbors.
Atom 184 local index 9981 global ID 198 type 2 has 5310 neighbors.
Atom 185 local index 9982 global ID 199 type 1 has 5311 neighbors.
Atom 186 local index 9983 global ID 200 type 2 has 5312 neighbors.
Atom 187 local index 9984 global ID 201 type 1 has 5313 neighbors.
Atom 188 local index 9985 global ID 202 type 2 has 5314 neighbors.
Atom 189 local index 9986 global ID 203 type 1 has 5315 neighbors.
Atom 190 local index 9987 global ID 204 type 2 has 5316 neighbors.
Atom 191 local index 9988 global ID 1389 type 1 has 5317 neighbors.
Atom 192 local index 9989 global ID 1390 type 2 has 5318 neighbors.
Atom 193 local index 9990 global ID 1391 type 1 has 5319 neighbors.
Atom 194 local index 9991 global ID 1392 type 2 has 488 neighbors.
Atom 195 local index 9992 global ID 1393 type 1 has 489 neighbors.
Atom 196 local index 9993 global ID 1394 type 2 has 490 neighbors.
Atom 197 local index 9994 global ID 1395 type 1 has 491 neighbors.
Atom 198 local index 9995 global ID 1396 type 2 has 492 neighbors.
Atom 199 local index 9996 global ID 1397 type 1 has 493 neighbors.
Atom 200 local index 9997 global ID 1398 type 2 has 494 neighbors.
Atom 201 local index 9998 global ID 1399 type 1 has 495 neighbors.
Atom 202 local index 9999 global ID 1400 type 2 has 496 neighbors.
Atom 203 local index 10000 global ID 1401 type 1 has 497 neighbors.
Atom 204 local index 10001 global ID 1402 type 2 has 498 neighbors.
Atom 205 local index 10002 global ID 1403 type 1 has 499 neighbors.
Atom 206 local index 10003 global ID 1404 type 2 has 500 neighbors.
Atom 207 local index 5172 global ID 189 type 1 has 501 neighbors.
Atom 208 local index 5173 global ID 190 type 2 has 502 neighbors.
Atom 209 local index 5174 global ID 191 type 1 has 503 neighbors.
Atom 210 local index 5175 global ID 192 type 2 has 504 neighbors.
Atom 211 local index 5176 global ID 193 type 1 has 505 neighbors.
Atom 212 local index 5177 global ID 194 type 2 has 506 neighbors.
Atom 213 local index 5178 global ID 195 type 1 has 507 neighbors.
Atom 214 local index 5179 global ID 196 type 2 has 508 neighbors.
Atom 215 local index 5180 global ID 197 type 1 has 509 neighbors.
Atom 216 local index 5181 global ID 198 type 2 has 510 neighbors.
Atom 217 local index 5182 global ID 199 type 1 has 511 neighbors.
Atom 218 local index 5183 global ID 200 type 2 has 512 neighbors.
Atom 219 local index 5184 global ID 201 type 1 has 513 neighbors.
Atom 220 local index 5185 global ID 202 type 2 has 514 neighbors.
Atom 221 local index 5186 global ID 203 type 1 has 515 neighbors.
Atom 222 local index 5187 global ID 204 type 2 has 516 neighbors.
Atom 223 local index 5188 global ID 1389 type 1 has 517 neighbors.
Atom 224 local index 5189 global ID 1390 type 2 has 518 neighbors.
Atom 225 local index 5190 global ID 1391 type 1 has 519 neighbors.
Atom 226 local index 5191 global ID 1392 type 2 has 2888 neighbors.
Atom 227 local index 5192 global ID 1393 type 1 has 2889 neighbors.
Atom 228 local index 5193 global ID 1394 type 2 has 2890 neighbors.
Atom 229 local index 5194 global ID 1395 type 1 has 2891 neighbors.
Atom 230 local index 5195 global ID 1396 type 2 has 2892 neighbors.
Atom 231 local index 5196 global ID 1397 type 1 has 2893 neighbors.
Atom 232 local index 5197 global ID 1398 type 2 has 2894 neighbors.
Atom 233 local index 5198 global ID 1399 type 1 has 2895 neighbors.
Atom 234 local index 5199 global ID 1400 type 2 has 2896 neighbors.
Atom 235 local index 5200 global ID 1401 type 1 has 2897 neighbors.
Atom 236 local index 5201 global ID 1402 type 2 has 2898 neighbors.
Atom 237 local index 5202 global ID 1403 type 1 has 2899 neighbors.
Atom 238 local index 5203 global ID 1404 type 2 has 2900 neighbors.
Atom 239 local index 372 global ID 189 type 1 has 2901 neighbors.
Atom 240 local index 373 global ID 190 type 2 has 2902 neighbors.
Atom 241 local index 374 global ID 191 type 1 has 2903 neighbors.
Atom 242 local index 375 global ID 192 type 2 has 2904 neighbors.
Atom 243 local index 376 global ID 193 type 1 has 2905 neighbors.
Atom 244 local index 377 global ID 194 type 2 has 2906 neighbors.
Atom 245 local index 378 global ID 195 type 1 has 2907 neighbors.
Atom 246 local index 379 global ID 196 type 2 has 2908 neighbors.
Atom 247 local index 380 global ID 197 type 1 has 2909 neighbors.
Atom 248 local index 381 global ID 198 type 2 has 2910 neighbors.
Atom 249 local index 382 global ID 199 type 1 has 2911 neighbors.
Atom 250 local index 383 global ID 200 type 2 has 2912 neighbors.
Atom 251 local index 384 global ID 201 type 1 has 2913 neighbors.
Atom 252 local index 385 global ID 202 type 2 has 2914 neighbors.
Atom 253 local index 386 global ID 203 type 1 has 2915 neighbors.
Atom 254 local index 387 global ID 204 type 2 has 2916 neighbors.
Atom 255 local index 388 global ID 1389 type 1 has 2917 neighbors.
Atom 256 local index 389 global ID 1390 type 2 has 2918 neighbors.
Atom 257 local index 390 global ID 1391 type 1 has 2919 neighbors.
Atom 258 local index 391 global ID 1392 type 2 has 7688 neighbors.
Atom 259 local index 392 global ID 1393 type 1 has 7689 neighbors.
Atom 260 local index 393 global ID 1394 type 2 has 7690 neighbors.
Atom 261 local index 394 global ID 1395 type 1 has 7691 neighbors.
Atom 262 local index 395 global ID 1396 type 2 has 7692 neighbors.
Atom 263 local index 396 global ID 1397 type 1 has 7693 neighbors.
Atom 264 local index 397 global ID 1398 type 2 has 7694 neighbors.
Atom 265 local index 398 global ID 1399 type 1 has 7695 neighbors.
Atom 266 local index 399 global ID 1400 type 2 has 7696 neighbors.
Atom 267 local index 400 global ID 1401 type 1 has 7697 neighbors.
Atom 268 local index 401 global ID 1402 type 2 has 7698 neighbors.
Atom 269 local index 403 global ID 1404 type 2 has 7699 neighbors.
Atom 270 local index 2772 global ID 189 type 1 has 7700 neighbors.
Atom 271 local index 2773 global ID 190 type 2 has 7701 neighbors.
Atom 272 local index 2774 global ID 191 type 1 has 7702 neighbors.
Atom 273 local index 2775 global ID 192 type 2 has 7703 neighbors.
Atom 274 local index 2776 global ID 193 type 1 has 7704 neighbors.
Atom 275 local index 2777 global ID 194 type 2 has 7705 neighbors.
Atom 276 local index 2778 global ID 195 type 1 has 7706 neighbors.
Atom 277 local index 2779 global ID 196 type 2 has 7707 neighbors.
Atom 278 local index 2780 global ID 197 type 1 has 7708 neighbors.
Atom 279 local index 2781 global ID 198 type 2 has 7709 neighbors.
Atom 280 local index 2782 global ID 199 type 1 has 7710 neighbors.
Atom 281 local index 2783 global ID 200 type 2 has 7711 neighbors.
Atom 282 local index 2784 global ID 201 type 1 has 7712 neighbors.
Atom 283 local index 2785 global ID 202 type 2 has 7713 neighbors.
Atom 284 local index 2786 global ID 203 type 1 has 7714 neighbors.
Atom 285 local index 2787 global ID 204 type 2 has 7715 neighbors.
Atom 286 local index 2788 global ID 1389 type 1 has 7716 neighbors.
Atom 287 local index 2789 global ID 1390 type 2 has 7717 neighbors.
Atom 288 local index 2790 global ID 1391 type 1 has 7718 neighbors.
Atom 289 local index 2791 global ID 1392 type 2 has 7719 neighbors.
Atom 290 local index 2792 global ID 1393 type 1 has 12489 neighbors.
Atom 291 local index 2793 global ID 1394 type 2 has 12492 neighbors.
Atom 292 local index 2794 global ID 1395 type 1 has 12493 neighbors.
Atom 293 local index 2795 global ID 1396 type 2 has 12494 neighbors.
Atom 294 local index 2796 global ID 1397 type 1 has 12495 neighbors.
Atom 295 local index 2797 global ID 1398 type 2 has 12496 neighbors.
Atom 296 local index 2798 global ID 1399 type 1 has 12497 neighbors.
Atom 297 local index 2799 global ID 1400 type 2 has 12498 neighbors.
Atom 298 local index 2800 global ID 1401 type 1 has 12499 neighbors.
Atom 299 local index 2801 global ID 1402 type 2 has 12500 neighbors.
Atom 300 local index 2802 global ID 1403 type 1 has 12501 neighbors.
Atom 301 local index 2803 global ID 1404 type 2 has 12502 neighbors.
Atom 302 local index 7572 global ID 189 type 1 has 12503 neighbors.
Atom 303 local index 7573 global ID 190 type 2 has 12504 neighbors.
Atom 304 local index 7574 global ID 191 type 1 has 12506 neighbors.
Atom 305 local index 7575 global ID 192 type 2 has 12507 neighbors.
Atom 306 local index 7576 global ID 193 type 1 has 12508 neighbors.
Atom 307 local index 7577 global ID 194 type 2 has 12510 neighbors.
Atom 308 local index 7578 global ID 195 type 1 has 12511 neighbors.
Atom 309 local index 7579 global ID 196 type 2 has 12512 neighbors.
Atom 310 local index 7580 global ID 197 type 1 has 12513 neighbors.
Atom 311 local index 7581 global ID 198 type 2 has 12514 neighbors.
Atom 312 local index 7582 global ID 199 type 1 has 12515 neighbors.
Atom 313 local index 7583 global ID 200 type 2 has 12516 neighbors.
Atom 314 local index 7584 global ID 201 type 1 has 12517 neighbors.
Atom 315 local index 7585 global ID 202 type 2 has 12518 neighbors.
Atom 316 local index 7586 global ID 203 type 1 has 12519 neighbors.
Atom 317 local index 7587 global ID 204 type 2 has 17318 neighbors.
Atom 318 local index 7588 global ID 1389 type 1 has 19720 neighbors.
Atom 319 local index 7589 global ID 1390 type 2 has 19721 neighbors.
Atom 320 local index 7590 global ID 1391 type 1 has 19722 neighbors.
Atom 321 local index 7591 global ID 1392 type 2 has 19723 neighbors.
Atom 322 local index 7592 global ID 1393 type 1 has 19724 neighbors.
Atom 323 local index 7593 global ID 1394 type 2 has 19725 neighbors.
Atom 324 local index 7594 global ID 1395 type 1 has 19726 neighbors.
Atom 325 local index 7595 global ID 1396 type 2 has 19727 neighbors.
Atom 326 local index 7596 global ID 1397 type 1 has 19728 neighbors.
Atom 327 local index 7597 global ID 1398 type 2 has 19729 neighbors.
Atom 328 local index 7598 global ID 1399 type 1 has 19730 neighbors.
Atom 329 local index 7599 global ID 1400 type 2 has 19731 neighbors.
Atom 330 local index 7600 global ID 1401 type 1 has 19733 neighbors.
Atom 331 local index 7601 global ID 1402 type 2 has 19734 neighbors.
Atom 332 local index 7602 global ID 1403 type 1 has 19735 neighbors.
Atom 333 local index 7603 global ID 1404 type 2 has 19736 neighbors.
Atom 334 local index 12372 global ID 189 type 1 has 19737 neighbors.
Atom 335 local index 12373 global ID 190 type 2 has 19738 neighbors.
Atom 336 local index 12374 global ID 191 type 1 has 19739 neighbors.
Atom 337 local index 12375 global ID 192 type 2 has 19740 neighbors.
Atom 338 local index 12376 global ID 193 type 1 has 19741 neighbors.
Atom 339 local index 12377 global ID 194 type 2 has 19742 neighbors.
Atom 340 local index 12378 global ID 195 type 1 has 19743 neighbors.
Atom 341 local index 12379 global ID 196 type 2 has 19745 neighbors.
Atom 342 local index 12380 global ID 197 type 1 has 19746 neighbors.
Atom 343 local index 12381 global ID 198 type 2 has 19747 neighbors.
Atom 344 local index 12382 global ID 199 type 1 has 14920 neighbors.
Atom 345 local index 12383 global ID 200 type 2 has 14921 neighbors.
Atom 346 local index 12384 global ID 201 type 1 has 14922 neighbors.
Atom 347 local index 12385 global ID 202 type 2 has 14923 neighbors.
Atom 348 local index 12386 global ID 203 type 1 has 14924 neighbors.
Atom 349 local index 12387 global ID 204 type 2 has 14925 neighbors.
Atom 350 local index 12388 global ID 1389 type 1 has 14926 neighbors.
Atom 351 local index 12389 global ID 1390 type 2 has 14927 neighbors.
Atom 352 local index 12390 global ID 1391 type 1 has 14928 neighbors.
Atom 353 local index 12391 global ID 1392 type 2 has 14929 neighbors.
Atom 354 local index 12392 global ID 1393 type 1 has 14930 neighbors.
Atom 355 local index 12393 global ID 1394 type 2 has 14931 neighbors.
Atom 356 local index 12394 global ID 1395 type 1 has 14932 neighbors.
Atom 357 local index 12395 global ID 1396 type 2 has 14933 neighbors.
Atom 358 local index 12396 global ID 1397 type 1 has 14934 neighbors.
Atom 359 local index 12397 global ID 1398 type 2 has 14935 neighbors.
Atom 360 local index 12398 global ID 1399 type 1 has 14936 neighbors.
Atom 361 local index 12399 global ID 1400 type 2 has 14937 neighbors.
Atom 362 local index 12400 global ID 1401 type 1 has 14938 neighbors.
Atom 363 local index 12401 global ID 1402 type 2 has 14939 neighbors.
Atom 364 local index 12402 global ID 1403 type 1 has 14940 neighbors.
Atom 365 local index 12403 global ID 1404 type 2 has 14941 neighbors.
Atom 366 local index 17174 global ID 191 type 1 has 14942 neighbors.
Atom 367 local index 17178 global ID 195 type 1 has 14943 neighbors.
Atom 368 local index 17182 global ID 199 type 1 has 14944 neighbors.
Atom 369 local index 17183 global ID 200 type 2 has 14945 neighbors.
Atom 370 local index 17186 global ID 203 type 1 has 14946 neighbors.
Atom 371 local index 17187 global ID 204 type 2 has 14947 neighbors.
Atom 372 local index 17188 global ID 1389 type 1 has 10120 neighbors.
Atom 373 local index 17189 global ID 1390 type 2 has 10121 neighbors.
Atom 374 local index 17192 global ID 1393 type 1 has 10122 neighbors.
Atom 375 local index 17193 global ID 1394 type 2 has 10123 neighbors.
Atom 376 local index 17196 global ID 1397 type 1 has 10124 neighbors.
Atom 377 local index 17197 global ID 1398 type 2 has 10125 neighbors.
Atom 378 local index 17198 global ID 1399 type 1 has 10126 neighbors.
Atom 379 local index 17200 global ID 1401 type 1 has 10127 neighbors.
Atom 380 local index 17201 global ID 1402 type 2 has 10128 neighbors.
Atom 381 local index 17202 global ID 1403 type 1 has 10129 neighbors.
Atom 382 local index 19604 global ID 205 type 1 has 10130 neighbors.
Atom 383 local index 19605 global ID 206 type 2 has 10131 neighbors.
Atom 384 local index 19608 global ID 209 type 1 has 10132 neighbors.
Atom 385 local index 19609 global ID 210 type 2 has 10133 neighbors.
Atom 386 local index 19613 global ID 214 type 2 has 10134 neighbors.
Atom 387 local index 19620 global ID 1407 type 1 has 10135 neighbors.
Atom 388 local index 19621 global ID 1408 type 2 has 10136 neighbors.
Atom 389 local index 19625 global ID 1412 type 2 has 10137 neighbors.
Atom 390 local index 19629 global ID 1416 type 2 has 10138 neighbors.
Atom 391 local index 14804 global ID 205 type 1 has 10139 neighbors.
Atom 392 local index 14805 global ID 206 type 2 has 10140 neighbors.
Atom 393 local index 14806 global ID 207 type 1 has 10141 neighbors.
Atom 394 local index 14807 global ID 208 type 2 has 10142 neighbors.
Atom 395 local index 14808 global ID 209 type 1 has 10143 neighbors.
Atom 396 local index 14809 global ID 210 type 2 has 10144 neighbors.
Atom 397 local index 14810 global ID 211 type 1 has 10145 neighbors.
Atom 398 local index 14811 global ID 212 type 2 has 10146 neighbors.
Atom 399 local index 14812 global ID 213 type 1 has 10147 neighbors.
Atom 400 local index 14813 global ID 214 type 2 has 5320 neighbors.
Atom 401 local index 14814 global ID 215 type 1 has 5321 neighbors.
Atom 402 local index 14815 global ID 216 type 2 has 5322 neighbors.
Atom 403 local index 14816 global ID 217 type 1 has 5323 neighbors.
Atom 404 local index 14817 global ID 220 type 2 has 5324 neighbors.
Atom 405 local index 14818 global ID 1405 type 1 has 5325 neighbors.
Atom 406 local index 14819 global ID 1406 type 2 has 5326 neighbors.
Atom 407 local index 14820 global ID 1407 type 1 has 5327 neighbors.
Atom 408 local index 14821 global ID 1408 type 2 has 5328 neighbors.
Atom 409 local index 14822 global ID 1409 type 1 has 5329 neighbors.
Atom 410 local index 14823 global ID 1410 type 2 has 5330 neighbors.
Atom 411 local index 14824 global ID 1411 type 1 has 5331 neighbors.
Atom 412 local index 14825 global ID 1412 type 2 has 5332 neighbors.
Atom 413 local index 14826 global ID 1413 type 1 has 5333 neighbors.
Atom 414 local index 14827 global ID 1414 type 2 has 5334 neighbors.
Atom 415 local index 14828 global ID 1415 type 1 has 5335 neighbors.
Atom 416 local index 14829 global ID 1416 type 2 has 5336 neighbors.
Atom 417 local index 14830 global ID 1417 type 1 has 5337 neighbors.
Atom 418 local index 14831 global ID 1420 type 2 has 5338 neighbors.
Atom 419 local index 10004 global ID 205 type 1 has 5339 neighbors.
Atom 420 local index 10005 global ID 206 type 2 has 5340 neighbors.
Atom 421 local index 10006 global ID 207 type 1 has 5341 neighbors.
Atom 422 local index 10007 global ID 208 type 2 has 5342 neighbors.
Atom 423 local index 10008 global ID 209 type 1 has 5343 neighbors.
Atom 424 local index 10009 global ID 210 type 2 has 5344 neighbors.
Atom 425 local index 10010 global ID 211 type 1 has 5345 neighbors.
Atom 426 local index 10011 global ID 212 type 2 has 5346 neighbors.
Atom 427 local index 10012 global ID 213 type 1 has 5347 neighbors.
Atom 428 local index 10013 global ID 214 type 2 has 520 neighbors.
Atom 429 local index 10014 global ID 215 type 1 has 521 neighbors.
Atom 430 local index 10015 global ID 216 type 2 has 522 neighbors.
Atom 431 local index 10016 global ID 217 type 1 has 523 neighbors.
Atom 432 local index 10017 global ID 220 type 2 has 524 neighbors.
Atom 433 local index 10018 global ID 1405 type 1 has 525 neighbors.
Atom 434 local index 10019 global ID 1406 type 2 has 526 neighbors.
Atom 435 local index 10020 global ID 1407 type 1 has 527 neighbors.
Atom 436 local index 10021 global ID 1408 type 2 has 528 neighbors.
Atom 437 local index 10022 global ID 1409 type 1 has 529 neighbors.
Atom 438 local index 10023 global ID 1410 type 2 has 530 neighbors.
Atom 439 local index 10024 global ID 1411 type 1 has 531 neighbors.
Atom 440 local index 10025 global ID 1412 type 2 has 532 neighbors.
Atom 441 local index 10026 global ID 1413 type 1 has 533 neighbors.
Atom 442 local index 10027 global ID 1414 type 2 has 534 neighbors.
Atom 443 local index 10028 global ID 1415 type 1 has 535 neighbors.
Atom 444 local index 10029 global ID 1416 type 2 has 537 neighbors.
Atom 445 local index 10030 global ID 1417 type 1 has 538 neighbors.
Atom 446 local index 10031 global ID 1420 type 2 has 539 neighbors.
Atom 447 local index 5204 global ID 205 type 1 has 540 neighbors.
Atom 448 local index 5205 global ID 206 type 2 has 541 neighbors.
Atom 449 local index 5206 global ID 207 type 1 has 542 neighbors.
Atom 450 local index 5207 global ID 208 type 2 has 543 neighbors.
Atom 451 local index 5208 global ID 209 type 1 has 544 neighbors.
Atom 452 local index 5209 global ID 210 type 2 has 545 neighbors.
Atom 453 local index 5210 global ID 211 type 1 has 546 neighbors.
Atom 454 local index 5211 global ID 212 type 2 has 547 neighbors.
Atom 455 local index 5212 global ID 213 type 1 has 2920 neighbors.
Atom 456 local index 5213 global ID 214 type 2 has 2921 neighbors.
Atom 457 local index 5214 global ID 215 type 1 has 2922 neighbors.
Atom 458 local index 5215 global ID 216 type 2 has 2923 neighbors.
Atom 459 local index 5216 global ID 217 type 1 has 2924 neighbors.
Atom 460 local index 5217 global ID 220 type 2 has 2925 neighbors.
Atom 461 local index 5218 global ID 1405 type 1 has 2926 neighbors.
Atom 462 local index 5219 global ID 1406 type 2 has 2927 neighbors.
Atom 463 local index 5220 global ID 1407 type 1 has 2928 neighbors.
Atom 464 local index 5221 global ID 1408 type 2 has 2929 neighbors.
Atom 465 local index 5222 global ID 1409 type 1 has 2930 neighbors.
Atom 466 local index 5223 global ID 1410 type 2 has 2931 neighbors.
Atom 467 local index 5224 global ID 1411 type 1 has 2932 neighbors.
Atom 468 local index 5225 global ID 1412 type 2 has 2933 neighbors.
Atom 469 local index 5226 global ID 1413 type 1 has 2934 neighbors.
Atom 470 local index 5227 global ID 1414 type 2 has 2935 neighbors.
Atom 471 local index 5228 global ID 1415 type 1 has 2936 neighbors.
Atom 472 local index 5229 global ID 1416 type 2 has 2937 neighbors.
Atom 473 local index 5230 global ID 1417 type 1 has 2938 neighbors.
Atom 474 local index 5231 global ID 1420 type 2 has 2939 neighbors.
Atom 475 local index 404 global ID 205 type 1 has 2940 neighbors.
Atom 476 local index 405 global ID 206 type 2 has 2941 neighbors.
Atom 477 local index 406 global ID 207 type 1 has 2942 neighbors.
Atom 478 local index 407 global ID 208 type 2 has 2943 neighbors.
Atom 479 local index 408 global ID 209 type 1 has 2944 neighbors.
Atom 480 local index 409 global ID 210 type 2 has 2945 neighbors.
Atom 481 local index 410 global ID 211 type 1 has 2946 neighbors.
Atom 482 local index 411 global ID 212 type 2 has 2947 neighbors.
Atom 483 local index 412 global ID 213 type 1 has 7720 neighbors.
Atom 484 local index 413 global ID 214 type 2 has 7721 neighbors.
Atom 485 local index 414 global ID 215 type 1 has 7722 neighbors.
Atom 486 local index 415 global ID 216 type 2 has 7723 neighbors.
Atom 487 local index 416 global ID 217 type 1 has 7724 neighbors.
Atom 488 local index 417 global ID 220 type 2 has 7725 neighbors.
Atom 489 local index 418 global ID 1405 type 1 has 7726 neighbors.
Atom 490 local index 419 global ID 1406 type 2 has 7727 neighbors.
Atom 491 local index 420 global ID 1407 type 1 has 7728 neighbors.
Atom 492 local index 421 global ID 1408 type 2 has 7729 neighbors.
Atom 493 local index 422 global ID 1409 type 1 has 7730 neighbors.
Atom 494 local index 423 global ID 1410 type 2 has 7731 neighbors.
Atom 495 local index 424 global ID 1411 type 1 has 7732 neighbors.
Atom 496 local index 425 global ID 1412 type 2 has 7733 neighbors.
Atom 497 local index 426 global ID 1413 type 1 has 7734 neighbors.
Atom 498 local index 427 global ID 1414 type 2 has 7735 neighbors.
Atom 499 local index 428 global ID 1415 type 1 has 7736 neighbors.
Atom 500 local index 429 global ID 1416 type 2 has 7737 neighbors.
Atom 501 local index 430 global ID 1417 type 1 has 7738 neighbors.
Atom 502 local index 431 global ID 1420 type 2 has 7739 neighbors.
Atom 503 local index 2804 global ID 205 type 1 has 7740 neighbors.
Atom 504 local index 2805 global ID 206 type 2 has 7741 neighbors.
Atom 505 local index 2806 global ID 207 type 1 has 7742 neighbors.
Atom 506 local index 2807 global ID 208 type 2 has 7743 neighbors.
Atom 507 local index 2808 global ID 209 type 1 has 7744 neighbors.
Atom 508 local index 2809 global ID 210 type 2 has 7745 neighbors.
Atom 509 local index 2810 global ID 211 type 1 has 7746 neighbors.
Atom 510 local index 2811 global ID 212 type 2 has 7747 neighbors.
Atom 511 local index 2812 global ID 213 type 1 has 12520 neighbors.
Atom 512 local index 2813 global ID 214 type 2 has 12521 neighbors.
Atom 513 local index 2814 global ID 215 type 1 has 12522 neighbors.
Atom 514 local index 2815 global ID 216 type 2 has 12523 neighbors.
Atom 515 local index 2816 global ID 217 type 1 has 12524 neighbors.
Atom 516 local index 2817 global ID 220 type 2 has 12525 neighbors.
Atom 517 local index 2818 global ID 1405 type 1 has 12526 neighbors.
Atom 518 local index 2819 global ID 1406 type 2 has 12527 neighbors.
Atom 519 local index 2820 global ID 1407 type 1 has 12528 neighbors.
Atom 520 local index 2821 global ID 1408 type 2 has 12529 neighbors.
Atom 521 local index 2822 global ID 1409 type 1 has 12530 neighbors.
Atom 522 local index 2823 global ID 1410 type 2 has 12531 neighbors.
Atom 523 local index 2824 global ID 1411 type 1 has 12532 neighbors.
Atom 524 local index 2825 global ID 1412 type 2 has 12533 neighbors.
Atom 525 local index 2826 global ID 1413 type 1 has 12534 neighbors.
Atom 526 local index 2827 global ID 1414 type 2 has 12535 neighbors.
Atom 527 local index 2828 global ID 1415 type 1 has 12536 neighbors.
Atom 528 local index 2829 global ID 1416 type 2 has 12537 neighbors.
Atom 529 local index 2830 global ID 1417 type 1 has 12538 neighbors.
Atom 530 local index 2831 global ID 1420 type 2 has 12539 neighbors.
Atom 531 local index 7604 global ID 205 type 1 has 12540 neighbors.
Atom 532 local index 7605 global ID 206 type 2 has 12541 neighbors.
Atom 533 local index 7606 global ID 207 type 1 has 12542 neighbors.
Atom 534 local index 7607 global ID 208 type 2 has 12543 neighbors.
Atom 535 local index 7608 global ID 209 type 1 has 12544 neighbors.
Atom 536 local index 7609 global ID 210 type 2 has 12545 neighbors.
Atom 537 local index 7610 global ID 211 type 1 has 12546 neighbors.
Atom 538 local index 7611 global ID 212 type 2 has 12547 neighbors.
Atom 539 local index 7612 global ID 213 type 1 has 17336 neighbors.
Atom 540 local index 7613 global ID 214 type 2 has 17340 neighbors.
Atom 541 local index 7614 global ID 215 type 1 has 19748 neighbors.
Atom 542 local index 7615 global ID 216 type 2 has 19749 neighbors.
Atom 543 local index 7616 global ID 217 type 1 has 19764 neighbors.
Atom 544 local index 7617 global ID 220 type 2 has 19765 neighbors.
Atom 545 local index 7618 global ID 1405 type 1 has 19769 neighbors.
Atom 546 local index 7619 global ID 1406 type 2 has 14948 neighbors.
Atom 547 local index 7620 global ID 1407 type 1 has 14949 neighbors.
Atom 548 local index 7621 global ID 1408 type 2 has 14950 neighbors.
Atom 549 local index 7622 global ID 1409 type 1 has 14951 neighbors.
Atom 550 local index 7623 global ID 1410 type 2 has 14952 neighbors.
Atom 551 local index 7624 global ID 1411 type 1 has 14953 neighbors.
Atom 552 local index 7625 global ID 1412 type 2 has 14954 neighbors.
Atom 553 local index 7626 global ID 1413 type 1 has 14955 neighbors.
Atom 554 local index 7627 global ID 1414 type 2 has 14956 neighbors.
Atom 555 local index 7628 global ID 1415 type 1 has 14957 neighbors.
Atom 556 local index 7629 global ID 1416 type 2 has 14959 neighbors.
Atom 557 local index 7630 global ID 1417 type 1 has 14962 neighbors.
Atom 558 local index 7631 global ID 1420 type 2 has 14963 neighbors.
Atom 559 local index 12404 global ID 205 type 1 has 14964 neighbors.
Atom 560 local index 12405 global ID 206 type 2 has 14965 neighbors.
Atom 561 local index 12406 global ID 207 type 1 has 14966 neighbors.
Atom 562 local index 12407 global ID 208 type 2 has 14967 neighbors.
Atom 563 local index 12408 global ID 209 type 1 has 14968 neighbors.
Atom 564 local index 12409 global ID 210 type 2 has 14969 neighbors.
Atom 565 local index 12410 global ID 211 type 1 has 14972 neighbors.
Atom 566 local index 12411 global ID 212 type 2 has 14973 neighbors.
Atom 567 local index 12412 global ID 213 type 1 has 10148 neighbors.
Atom 568 local index 12413 global ID 214 type 2 has 10149 neighbors.
Atom 569 local index 12414 global ID 215 type 1 has 10150 neighbors.
Atom 570 local index 12415 global ID 216 type 2 has 10151 neighbors.
Atom 571 local index 12416 global ID 217 type 1 has 10152 neighbors.
Atom 572 local index 12417 global ID 220 type 2 has 10153 neighbors.
Atom 573 local index 12418 global ID 1405 type 1 has 10154 neighbors.
Atom 574 local index 12419 global ID 1406 type 2 has 10155 neighbors.
Atom 575 local index 12420 global ID 1407 type 1 has 10156 neighbors.
Atom 576 local index 12421 global ID 1408 type 2 has 10157 neighbors.
Atom 577 local index 12422 global ID 1409 type 1 has 10158 neighbors.
Atom 578 local index 12423 global ID 1410 type 2 has 10159 neighbors.
Atom 579 local index 12424 global ID 1411 type 1 has 10160 neighbors.
Atom 580 local index 12425 global ID 1412 type 2 has 10161 neighbors.
Atom 581 local index 12426 global ID 1413 type 1 has 10162 neighbors.
Atom 582 local index 12427 global ID 1414 type 2 has 10163 neighbors.
Atom 583 local index 12428 global ID 1415 type 1 has 10164 neighbors.
Atom 584 local index 12429 global ID 1416 type 2 has 10165 neighbors.
Atom 585 local index 12430 global ID 1417 type 1 has 10166 neighbors.
Atom 586 local index 12431 global ID 1420 type 2 has 10167 neighbors.
Atom 587 local index 17206 global ID 207 type 1 has 10168 neighbors.
Atom 588 local index 17207 global ID 208 type 2 has 10169 neighbors.
Atom 589 local index 17210 global ID 211 type 1 has 10170 neighbors.
Atom 590 local index 17211 global ID 212 type 2 has 10171 neighbors.
Atom 591 local index 17214 global ID 215 type 1 has 10172 neighbors.
Atom 592 local index 17218 global ID 1405 type 1 has 10173 neighbors.
Atom 593 local index 17219 global ID 1406 type 2 has 10174 neighbors.
Atom 594 local index 17220 global ID 1407 type 1 has 10175 neighbors.
Atom 595 local index 17222 global ID 1409 type 1 has 5348 neighbors.
Atom 596 local index 17223 global ID 1410 type 2 has 5349 neighbors.
Atom 597 local index 17226 global ID 1413 type 1 has 5350 neighbors.
Atom 598 local index 17227 global ID 1414 type 2 has 5351 neighbors.
Atom 599 local index 17230 global ID 1417 type 1 has 5352 neighbors.
Atom 600 local index 14832 global ID 218 type 2 has 5353 neighbors.
Atom 601 local index 14833 global ID 219 type 1 has 5354 neighbors.
Atom 602 local index 14834 global ID 221 type 1 has 5355 neighbors.
Atom 603 local index 14835 global ID 222 type 2 has 5356 neighbors.
Atom 604 local index 14846 global ID 1418 type 2 has 5357 neighbors.
Atom 605 local index 14847 global ID 1419 type 1 has 5358 neighbors.
Atom 606 local index 14851 global ID 1424 type 2 has 5359 neighbors.
Atom 607 local index 10032 global ID 218 type 2 has 5360 neighbors.
Atom 608 local index 10033 global ID 219 type 1 has 5361 neighbors.
Atom 609 local index 10034 global ID 221 type 1 has 5362 neighbors.
Atom 610 local index 10035 global ID 222 type 2 has 5363 neighbors.
Atom 611 local index 10036 global ID 223 type 1 has 5364 neighbors.
Atom 612 local index 10037 global ID 224 type 2 has 5365 neighbors.
Atom 613 local index 10038 global ID 225 type 1 has 5366 neighbors.
Atom 614 local index 10039 global ID 226 type 2 has 5367 neighbors.
Atom 615 local index 10041 global ID 228 type 2 has 5368 neighbors.
Atom 616 local index 10046 global ID 1418 type 2 has 5369 neighbors.
Atom 617 local index 10047 global ID 1419 type 1 has 5370 neighbors.
Atom 618 local index 10048 global ID 1421 type 1 has 5371 neighbors.
Atom 619 local index 10049 global ID 1422 type 2 has 5372 neighbors.
Atom 620 local index 10050 global ID 1423 type 1 has 5373 neighbors.
Atom 621 local index 10051 global ID 1424 type 2 has 5374 neighbors.
Atom 622 local index 10052 global ID 1425 type 1 has 5375 neighbors.
Atom 623 local index 10054 global ID 1427 type 1 has 548 neighbors.
Atom 624 local index 10055 global ID 1428 type 2 has 549 neighbors.
Atom 625 local index 5232 global ID 218 type 2 has 550 neighbors.
Atom 626 local index 5233 global ID 219 type 1 has 551 neighbors.
Atom 627 local index 5234 global ID 221 type 1 has 552 neighbors.
Atom 628 local index 5235 global ID 222 type 2 has 553 neighbors.
Atom 629 local index 5236 global ID 223 type 1 has 554 neighbors.
Atom 630 local index 5237 global ID 224 type 2 has 555 neighbors.
Atom 631 local index 5238 global ID 225 type 1 has 556 neighbors.
Atom 632 local index 5239 global ID 226 type 2 has 557 neighbors.
Atom 633 local index 5240 global ID 227 type 1 has 558 neighbors.
Atom 634 local index 5241 global ID 228 type 2 has 559 neighbors.
Atom 635 local index 5242 global ID 229 type 1 has 560 neighbors.
Atom 636 local index 5245 global ID 232 type 2 has 561 neighbors.
Atom 637 local index 5246 global ID 1418 type 2 has 562 neighbors.
Atom 638 local index 5247 global ID 1419 type 1 has 563 neighbors.
Atom 639 local index 5248 global ID 1421 type 1 has 564 neighbors.
Atom 640 local index 5249 global ID 1422 type 2 has 565 neighbors.
Atom 641 local index 5250 global ID 1423 type 1 has 566 neighbors.
Atom 642 local index 5251 global ID 1424 type 2 has 567 neighbors.
Atom 643 local index 5252 global ID 1425 type 1 has 568 neighbors.
Atom 644 local index 5253 global ID 1426 type 2 has 569 neighbors.
Atom 645 local index 5254 global ID 1427 type 1 has 570 neighbors.
Atom 646 local index 5255 global ID 1428 type 2 has 571 neighbors.
Atom 647 local index 5256 global ID 1429 type 1 has 572 neighbors.
Atom 648 local index 5259 global ID 1432 type 2 has 573 neighbors.
Atom 649 local index 432 global ID 218 type 2 has 574 neighbors.
Atom 650 local index 433 global ID 219 type 1 has 575 neighbors.
Atom 651 local index 434 global ID 221 type 1 has 2948 neighbors.
Atom 652 local index 435 global ID 222 type 2 has 2949 neighbors.
Atom 653 local index 436 global ID 223 type 1 has 2950 neighbors.
Atom 654 local index 437 global ID 224 type 2 has 2951 neighbors.
Atom 655 local index 438 global ID 225 type 1 has 2952 neighbors.
Atom 656 local index 439 global ID 226 type 2 has 2953 neighbors.
Atom 657 local index 440 global ID 227 type 1 has 2954 neighbors.
Atom 658 local index 441 global ID 228 type 2 has 2955 neighbors.
Atom 659 local index 442 global ID 229 type 1 has 2956 neighbors.
Atom 660 local index 443 global ID 230 type 2 has 2957 neighbors.
Atom 661 local index 444 global ID 231 type 1 has 2958 neighbors.
Atom 662 local index 445 global ID 232 type 2 has 2959 neighbors.
Atom 663 local index 446 global ID 1418 type 2 has 2960 neighbors.
Atom 664 local index 447 global ID 1419 type 1 has 2961 neighbors.
Atom 665 local index 448 global ID 1421 type 1 has 2962 neighbors.
Atom 666 local index 449 global ID 1422 type 2 has 2963 neighbors.
Atom 667 local index 450 global ID 1423 type 1 has 2964 neighbors.
Atom 668 local index 451 global ID 1424 type 2 has 2965 neighbors.
Atom 669 local index 452 global ID 1425 type 1 has 2966 neighbors.
Atom 670 local index 453 global ID 1426 type 2 has 2967 neighbors.
Atom 671 local index 454 global ID 1427 type 1 has 2968 neighbors.
Atom 672 local index 455 global ID 1428 type 2 has 2969 neighbors.
Atom 673 local index 456 global ID 1429 type 1 has 2970 neighbors.
Atom 674 local index 457 global ID 1430 type 2 has 2971 neighbors.
Atom 675 local index 458 global ID 1431 type 1 has 2972 neighbors.
Atom 676 local index 459 global ID 1432 type 2 has 2973 neighbors.
Atom 677 local index 2832 global ID 218 type 2 has 2974 neighbors.
Atom 678 local index 2833 global ID 219 type 1 has 2975 neighbors.
Atom 679 local index 2834 global ID 221 type 1 has 7748 neighbors.
Atom 680 local index 2835 global ID 222 type 2 has 7749 neighbors.
Atom 681 local index 2836 global ID 223 type 1 has 7750 neighbors.
Atom 682 local index 2837 global ID 224 type 2 has 7751 neighbors.
Atom 683 local index 2838 global ID 225 type 1 has 7752 neighbors.
Atom 684 local index 2839 global ID 226 type 2 has 7753 neighbors.
Atom 685 local index 2840 global ID 227 type 1 has 7754 neighbors.
Atom 686 local index 2841 global ID 228 type 2 has 7755 neighbors.
Atom 687 local index 2842 global ID 229 type 1 has 7756 neighbors.
Atom 688 local index 2845 global ID 232 type 2 has 7758 neighbors.
Atom 689 local index 2846 global ID 1418 type 2 has 7759 neighbors.
Atom 690 local index 2847 global ID 1419 type 1 has 7762 neighbors.
Atom 691 local index 2848 global ID 1421 type 1 has 7763 neighbors.
Atom 692 local index 2849 global ID 1422 type 2 has 7764 neighbors.
Atom 693 local index 2850 global ID 1423 type 1 has 7765 neighbors.
Atom 694 local index 2851 global ID 1424 type 2 has 7766 neighbors.
Atom 695 local index 2852 global ID 1425 type 1 has 7767 neighbors.
Atom 696 local index 2853 global ID 1426 type 2 has 7768 neighbors.
Atom 697 local index 2854 global ID 1427 type 1 has 7769 neighbors.
Atom 698 local index 2855 global ID 1428 type 2 has 7770 neighbors.
Atom 699 local index 2856 global ID 1429 type 1 has 7771 neighbors.
Atom 700 local index 2857 global ID 1430 type 2 has 7772 neighbors.
Atom 701 local index 2859 global ID 1432 type 2 has 7773 neighbors.
Atom 702 local index 7632 global ID 218 type 2 has 7774 neighbors.
Atom 703 local index 7633 global ID 219 type 1 has 12548 neighbors.
Atom 704 local index 7634 global ID 221 type 1 has 12550 neighbors.
Atom 705 local index 7635 global ID 222 type 2 has 12551 neighbors.
Atom 706 local index 7636 global ID 223 type 1 has 12554 neighbors.
Atom 707 local index 7637 global ID 224 type 2 has 12555 neighbors.
Atom 708 local index 7638 global ID 225 type 1 has 12562 neighbors.
Atom 709 local index 7640 global ID 227 type 1 has 12563 neighbors.
Atom 710 local index 7641 global ID 228 type 2 has 12564 neighbors.
Atom 711 local index 7646 global ID 1418 type 2 has 12565 neighbors.
Atom 712 local index 7647 global ID 1419 type 1 has 12566 neighbors.
Atom 713 local index 7648 global ID 1421 type 1 has 12567 neighbors.
Atom 714 local index 7649 global ID 1422 type 2 has 10176 neighbors.
Atom 715 local index 7650 global ID 1423 type 1 has 10191 neighbors.
Atom 716 local index 7651 global ID 1424 type 2 has 5376 neighbors.
Atom 717 local index 7652 global ID 1425 type 1 has 5377 neighbors.
Atom 718 local index 7653 global ID 1426 type 2 has 5378 neighbors.
Atom 719 local index 7654 global ID 1427 type 1 has 5390 neighbors.
Atom 720 local index 7655 global ID 1428 type 2 has 5391 neighbors.
Atom 721 local index 7656 global ID 1429 type 1 has 5395 neighbors.
Atom 722 local index 12432 global ID 218 type 2 has 576 neighbors.
Atom 723 local index 12433 global ID 219 type 1 has 577 neighbors.
Atom 724 local index 12436 global ID 223 type 1 has 581 neighbors.
Atom 725 local index 12437 global ID 224 type 2 has 590 neighbors.
Atom 726 local index 12446 global ID 1418 type 2 has 591 neighbors.
Atom 727 local index 12447 global ID 1419 type 1 has 592 neighbors.
Atom 728 local index 12448 global ID 1421 type 1 has 595 neighbors.
Atom 729 local index 12449 global ID 1422 type 2 has 2977 neighbors.
Atom 730 local index 12451 global ID 1424 type 2 has 2990 neighbors.
Atom 731 local index 12452 global ID 1425 type 1 has 2991 neighbors.
Atom 732 local index 328 global ID 173 type 1 has 14872 neighbors.
Atom 733 local index 329 global ID 176 type 2 has 14887 neighbors.
Atom 734 local index 342 global ID 1373 type 1 has 10068 neighbors.
Atom 735 local index 343 global ID 1376 type 2 has 10069 neighbors.
Atom 736 local index 2742 global ID 1373 type 1 has 10070 neighbors.
Atom 737 local index 14754 global ID 185 type 1 has 10072 neighbors.
Atom 738 local index 14756 global ID 187 type 1 has 10073 neighbors.
Atom 739 local index 14757 global ID 188 type 2 has 10083 neighbors.
Atom 740 local index 14766 global ID 1383 type 1 has 10084 neighbors.
Atom 741 local index 14769 global ID 1386 type 2 has 10085 neighbors.
Atom 742 local index 14770 global ID 1387 type 1 has 10086 neighbors.
Atom 743 local index 14771 global ID 1388 type 2 has 10087 neighbors.
Atom 744 local index 9946 global ID 177 type 1 has 5265 neighbors.
Atom 745 local index 9948 global ID 179 type 1 has 5268 neighbors.
Atom 746 local index 9950 global ID 181 type 1 has 5269 neighbors.
Atom 747 local index 9951 global ID 182 type 2 has 5270 neighbors.
Atom 748 local index 9952 global ID 183 type 1 has 5271 neighbors.
Atom 749 local index 9953 global ID 184 type 2 has 5272 neighbors.
Atom 750 local index 9954 global ID 185 type 1 has 5273 neighbors.
Atom 751 local index 9955 global ID 186 type 2 has 5280 neighbors.
Atom 752 local index 9956 global ID 187 type 1 has 5282 neighbors.
Atom 753 local index 9957 global ID 188 type 2 has 5283 neighbors.
Atom 754 local index 9961 global ID 1378 type 2 has 5284 neighbors.
Atom 755 local index 9962 global ID 1379 type 1 has 5285 neighbors.
Atom 756 local index 9963 global ID 1380 type 2 has 5286 neighbors.
Atom 757 local index 9964 global ID 1381 type 1 has 5287 neighbors.
Atom 758 local index 9965 global ID 1382 type 2 has 466 neighbors.
Atom 759 local index 9966 global ID 1383 type 1 has 468 neighbors.
Atom 760 local index 9967 global ID 1384 type 2 has 469 neighbors.
Atom 761 local index 9968 global ID 1385 type 1 has 470 neighbors.
Atom 762 local index 9969 global ID 1386 type 2 has 471 neighbors.
Atom 763 local index 9970 global ID 1387 type 1 has 472 neighbors.
Atom 764 local index 9971 global ID 1388 type 2 has 473 neighbors.
Atom 765 local index 5145 global ID 175 type 1 has 479 neighbors.
Atom 766 local index 5146 global ID 177 type 1 has 480 neighbors.
Atom 767 local index 5147 global ID 178 type 2 has 482 neighbors.
Atom 768 local index 5148 global ID 179 type 1 has 483 neighbors.
Atom 769 local index 5149 global ID 180 type 2 has 484 neighbors.
Atom 770 local index 5150 global ID 181 type 1 has 485 neighbors.
Atom 771 local index 5151 global ID 182 type 2 has 486 neighbors.
Atom 772 local index 5152 global ID 183 type 1 has 487 neighbors.
Atom 773 local index 5153 global ID 184 type 2 has 2868 neighbors.
Atom 774 local index 5154 global ID 185 type 1 has 2869 neighbors.
Atom 775 local index 5155 global ID 186 type 2 has 2870 neighbors.
Atom 776 local index 5156 global ID 187 type 1 has 2871 neighbors.
Atom 777 local index 5157 global ID 188 type 2 has 2872 neighbors.
Atom 778 local index 5158 global ID 1374 type 2 has 2873 neighbors.
Atom 779 local index 5159 global ID 1375 type 1 has 2882 neighbors.
Atom 780 local index 5160 global ID 1377 type 1 has 2883 neighbors.
Atom 781 local index 5161 global ID 1378 type 2 has 2884 neighbors.
Atom 782 local index 5162 global ID 1379 type 1 has 2885 neighbors.
Atom 783 local index 5163 global ID 1380 type 2 has 2886 neighbors.
Atom 784 local index 5164 global ID 1381 type 1 has 2887 neighbors.
Atom 785 local index 5165 global ID 1382 type 2 has 7670 neighbors.
Atom 786 local index 5166 global ID 1383 type 1 has 7672 neighbors.
Atom 787 local index 5167 global ID 1384 type 2 has 7673 neighbors.
Atom 788 local index 5168 global ID 1385 type 1 has 7683 neighbors.
Atom 789 local index 5169 global ID 1386 type 2 has 7686 neighbors.
Atom 790 local index 5170 global ID 1387 type 1 has 7687 neighbors.
Atom 791 local index 5171 global ID 1388 type 2 has 19695 neighbors.
Atom 792 local index 344 global ID 174 type 2 has 19698 neighbors.
Atom 793 local index 345 global ID 175 type 1 has 19699 neighbors.
Atom 794 local index 346 global ID 177 type 1 has 19702 neighbors.
Atom 795 local index 347 global ID 178 type 2 has 19703 neighbors.
Atom 796 local index 348 global ID 179 type 1 has 19712 neighbors.
Atom 797 local index 349 global ID 180 type 2 has 19713 neighbors.
Atom 798 local index 350 global ID 181 type 1 has 19716 neighbors.
Atom 799 local index 351 global ID 182 type 2 has 19717 neighbors.
Atom 800 local index 352 global ID 183 type 1 has 19719 neighbors.
Atom 801 local index 353 global ID 184 type 2 has 14888 neighbors.
Atom 802 local index 354 global ID 185 type 1 has 14890 neighbors.
Atom 803 local index 355 global ID 186 type 2 has 14891 neighbors.
Atom 804 local index 356 global ID 187 type 1 has 14892 neighbors.
Atom 805 local index 357 global ID 188 type 2 has 14893 neighbors.
Atom 806 local index 358 global ID 1374 type 2 has 14894 neighbors.
Atom 807 local index 359 global ID 1375 type 1 has 14895 neighbors.
Atom 808 local index 360 global ID 1377 type 1 has 14896 neighbors.
Atom 809 local index 361 global ID 1378 type 2 has 14897 neighbors.
Atom 810 local index 362 global ID 1379 type 1 has 14898 neighbors.
Atom 811 local index 363 global ID 1380 type 2 has 14899 neighbors.
Atom 812 local index 364 global ID 1381 type 1 has 14900 neighbors.
Atom 813 local index 365 global ID 1382 type 2 has 14901 neighbors.
Atom 814 local index 366 global ID 1383 type 1 has 14902 neighbors.
Atom 815 local index 367 global ID 1384 type 2 has 14903 neighbors.
Atom 816 local index 368 global ID 1385 type 1 has 14905 neighbors.
Atom 817 local index 369 global ID 1386 type 2 has 14906 neighbors.
Atom 818 local index 370 global ID 1387 type 1 has 14907 neighbors.
Atom 819 local index 371 global ID 1388 type 2 has 14908 neighbors.
Atom 820 local index 2744 global ID 174 type 2 has 14909 neighbors.
Atom 821 local index 2745 global ID 175 type 1 has 14910 neighbors.
Atom 822 local index 2746 global ID 177 type 1 has 14911 neighbors.
Atom 823 local index 2747 global ID 178 type 2 has 14912 neighbors.
Atom 824 local index 2748 global ID 179 type 1 has 14913 neighbors.
Atom 825 local index 2749 global ID 180 type 2 has 14914 neighbors.
Atom 826 local index 2750 global ID 181 type 1 has 14915 neighbors.
Atom 827 local index 2751 global ID 182 type 2 has 14916 neighbors.
Atom 828 local index 2752 global ID 183 type 1 has 14917 neighbors.
Atom 829 local index 2753 global ID 184 type 2 has 14918 neighbors.
Atom 830 local index 2754 global ID 185 type 1 has 14919 neighbors.
Atom 831 local index 2755 global ID 186 type 2 has 10088 neighbors.
Atom 832 local index 2756 global ID 187 type 1 has 10089 neighbors.
Atom 833 local index 2757 global ID 188 type 2 has 10090 neighbors.
Atom 834 local index 2758 global ID 1374 type 2 has 10091 neighbors.
Atom 835 local index 2759 global ID 1375 type 1 has 10092 neighbors.
Atom 836 local index 2760 global ID 1377 type 1 has 10093 neighbors.
Atom 837 local index 2761 global ID 1378 type 2 has 10094 neighbors.
Atom 838 local index 2762 global ID 1379 type 1 has 10095 neighbors.
Atom 839 local index 2763 global ID 1380 type 2 has 10096 neighbors.
Atom 840 local index 2764 global ID 1381 type 1 has 10097 neighbors.
Atom 841 local index 2765 global ID 1382 type 2 has 10098 neighbors.
Atom 842 local index 2766 global ID 1383 type 1 has 10099 neighbors.
Atom 843 local index 2767 global ID 1384 type 2 has 10100 neighbors.
Atom 844 local index 2768 global ID 1385 type 1 has 10101 neighbors.
Atom 845 local index 2769 global ID 1386 type 2 has 10102 neighbors.
Atom 846 local index 2770 global ID 1387 type 1 has 10103 neighbors.
Atom 847 local index 2771 global ID 1388 type 2 has 10104 neighbors.
Atom 848 local index 7544 global ID 174 type 2 has 10105 neighbors.
Atom 849 local index 7545 global ID 175 type 1 has 10106 neighbors.
Atom 850 local index 7546 global ID 177 type 1 has 10107 neighbors.
Atom 851 local index 7547 global ID 178 type 2 has 10108 neighbors.
Atom 852 local index 7548 global ID 179 type 1 has 10109 neighbors.
Atom 853 local index 7549 global ID 180 type 2 has 10110 neighbors.
Atom 854 local index 7550 global ID 181 type 1 has 10111 neighbors.
Atom 855 local index 7551 global ID 182 type 2 has 10112 neighbors.
Atom 856 local index 7552 global ID 183 type 1 has 10113 neighbors.
Atom 857 local index 7553 global ID 184 type 2 has 10114 neighbors.
Atom 858 local index 7554 global ID 185 type 1 has 10115 neighbors.
Atom 859 local index 7555 global ID 186 type 2 has 10116 neighbors.
Atom 860 local index 7556 global ID 187 type 1 has 10117 neighbors.
Atom 861 local index 7557 global ID 188 type 2 has 10118 neighbors.
Atom 862 local index 7558 global ID 1374 type 2 has 10119 neighbors.
Atom 863 local index 7560 global ID 1377 type 1 has 5288 neighbors.
Atom 864 local index 7561 global ID 1378 type 2 has 5289 neighbors.
Atom 865 local index 7562 global ID 1379 type 1 has 5290 neighbors.
Atom 866 local index 7563 global ID 1380 type 2 has 5291 neighbors.
Atom 867 local index 7564 global ID 1381 type 1 has 5292 neighbors.
Atom 868 local index 7565 global ID 1382 type 2 has 5293 neighbors.
Atom 869 local index 7566 global ID 1383 type 1 has 5294 neighbors.
Atom 870 local index 7567 global ID 1384 type 2 has 5295 neighbors.
Atom 871 local index 7568 global ID 1385 type 1 has 5296 neighbors.
Atom 872 local index 7569 global ID 1386 type 2 has 5297 neighbors.
Atom 873 local index 7570 global ID 1387 type 1 has 5298 neighbors.
Atom 874 local index 7571 global ID 1388 type 2 has 5299 neighbors.
Atom 875 local index 12347 global ID 178 type 2 has 5300 neighbors.
Atom 876 local index 12348 global ID 179 type 1 has 5301 neighbors.
Atom 877 local index 12351 global ID 182 type 2 has 5302 neighbors.
Atom 878 local index 12352 global ID 183 type 1 has 5303 neighbors.
Atom 879 local index 12353 global ID 184 type 2 has 5304 neighbors.
Atom 880 local index 12354 global ID 185 type 1 has 5305 neighbors.
Atom 881 local index 12355 global ID 186 type 2 has 5306 neighbors.
Atom 882 local index 12356 global ID 187 type 1 has 5307 neighbors.
Atom 883 local index 12357 global ID 188 type 2 has 5308 neighbors.
Atom 884 local index 12361 global ID 1378 type 2 has 5309 neighbors.
Atom 885 local index 12364 global ID 1381 type 1 has 5310 neighbors.
Atom 886 local index 12365 global ID 1382 type 2 has 5311 neighbors.
Atom 887 local index 12366 global ID 1383 type 1 has 5312 neighbors.
Atom 888 local index 12368 global ID 1385 type 1 has 5313 neighbors.
Atom 889 local index 12369 global ID 1386 type 2 has 5314 neighbors.
Atom 890 local index 12370 global ID 1387 type 1 has 5315 neighbors.
Atom 891 local index 12371 global ID 1388 type 2 has 5316 neighbors.
Atom 892 local index 17155 global ID 186 type 2 has 5317 neighbors.
Atom 893 local index 17156 global ID 187 type 1 has 5318 neighbors.
Atom 894 local index 17168 global ID 1385 type 1 has 5319 neighbors.
Atom 895 local index 17169 global ID 1386 type 2 has 488 neighbors.
Atom 896 local index 19577 global ID 194 type 2 has 489 neighbors.
Atom 897 local index 19580 global ID 197 type 1 has 490 neighbors.
Atom 898 local index 19581 global ID 198 type 2 has 491 neighbors.
Atom 899 local index 19584 global ID 201 type 1 has 492 neighbors.
Atom 900 local index 19585 global ID 202 type 2 has 493 neighbors.
Atom 901 local index 19599 global ID 1400 type 2 has 494 neighbors.
Atom 902 local index 19603 global ID 1404 type 2 has 495 neighbors.
Atom 903 local index 14772 global ID 189 type 1 has 496 neighbors.
Atom 904 local index 14773 global ID 190 type 2 has 497 neighbors.
Atom 905 local index 14774 global ID 191 type 1 has 498 neighbors.
Atom 906 local index 14775 global ID 192 type 2 has 499 neighbors.
Atom 907 local index 14776 global ID 193 type 1 has 500 neighbors.
Atom 908 local index 14777 global ID 194 type 2 has 501 neighbors.
Atom 909 local index 14778 global ID 195 type 1 has 502 neighbors.
Atom 910 local index 14779 global ID 196 type 2 has 503 neighbors.
Atom 911 local index 14780 global ID 197 type 1 has 504 neighbors.
Atom 912 local index 14781 global ID 198 type 2 has 505 neighbors.
Atom 913 local index 14782 global ID 199 type 1 has 506 neighbors.
Atom 914 local index 14783 global ID 200 type 2 has 507 neighbors.
Atom 915 local index 14784 global ID 201 type 1 has 508 neighbors.
Atom 916 local index 14785 global ID 202 type 2 has 509 neighbors.
Atom 917 local index 14786 global ID 203 type 1 has 510 neighbors.
Atom 918 local index 14787 global ID 204 type 2 has 511 neighbors.
Atom 919 local index 14788 global ID 1389 type 1 has 512 neighbors.
Atom 920 local index 14789 global ID 1390 type 2 has 513 neighbors.
Atom 921 local index 14790 global ID 1391 type 1 has 514 neighbors.
Atom 922 local index 14791 global ID 1392 type 2 has 515 neighbors.
Atom 923 local index 14792 global ID 1393 type 1 has 516 neighbors.
Atom 924 local index 14793 global ID 1394 type 2 has 517 neighbors.
Atom 925 local index 14794 global ID 1395 type 1 has 518 neighbors.
Atom 926 local index 14795 global ID 1396 type 2 has 519 neighbors.
Atom 927 local index 14796 global ID 1397 type 1 has 2888 neighbors.
Atom 928 local index 14797 global ID 1398 type 2 has 2889 neighbors.
Atom 929 local index 14798 global ID 1399 type 1 has 2890 neighbors.
Atom 930 local index 14799 global ID 1400 type 2 has 2891 neighbors.
Atom 931 local index 14800 global ID 1401 type 1 has 2892 neighbors.
Atom 932 local index 14801 global ID 1402 type 2 has 2893 neighbors.
Atom 933 local index 14802 global ID 1403 type 1 has 2894 neighbors.
Atom 934 local index 14803 global ID 1404 type 2 has 2895 neighbors.
Atom 935 local index 9972 global ID 189 type 1 has 2896 neighbors.
Atom 936 local index 9973 global ID 190 type 2 has 2897 neighbors.
Atom 937 local index 9974 global ID 191 type 1 has 2898 neighbors.
Atom 938 local index 9975 global ID 192 type 2 has 2899 neighbors.
Atom 939 local index 9976 global ID 193 type 1 has 2900 neighbors.
Atom 940 local index 9977 global ID 194 type 2 has 2901 neighbors.
Atom 941 local index 9978 global ID 195 type 1 has 2902 neighbors.
Atom 942 local index 9979 global ID 196 type 2 has 2903 neighbors.
Atom 943 local index 9980 global ID 197 type 1 has 2904 neighbors.
Atom 944 local index 9981 global ID 198 type 2 has 2905 neighbors.
Atom 945 local index 9982 global ID 199 type 1 has 2906 neighbors.
Atom 946 local index 9983 global ID 200 type 2 has 2907 neighbors.
Atom 947 local index 9984 global ID 201 type 1 has 2908 neighbors.
Atom 948 local index 9985 global ID 202 type 2 has 2909 neighbors.
Atom 949 local index 9986 global ID 203 type 1 has 2910 neighbors.
Atom 950 local index 9987 global ID 204 type 2 has 2911 neighbors.
Atom 951 local index 9988 global ID 1389 type 1 has 2912 neighbors.
Atom 952 local index 9989 global ID 1390 type 2 has 2913 neighbors.
Atom 953 local index 9990 global ID 1391 type 1 has 2914 neighbors.
Atom 954 local index 9991 global ID 1392 type 2 has 2915 neighbors.
Atom 955 local index 9992 global ID 1393 type 1 has 2916 neighbors.
Atom 956 local index 9993 global ID 1394 type 2 has 2917 neighbors.
Atom 957 local index 9994 global ID 1395 type 1 has 2918 neighbors.
Atom 958 local index 9995 global ID 1396 type 2 has 2919 neighbors.
Atom 959 local index 9996 global ID 1397 type 1 has 7688 neighbors.
Atom 960 local index 9997 global ID 1398 type 2 has 7689 neighbors.
Atom 961 local index 9998 global ID 1399 type 1 has 7690 neighbors.
Atom 962 local index 9999 global ID 1400 type 2 has 7691 neighbors.
Atom 963 local index 10000 global ID 1401 type 1 has 7692 neighbors.
Atom 964 local index 10001 global ID 1402 type 2 has 7693 neighbors.
Atom 965 local index 10002 global ID 1403 type 1 has 7694 neighbors.
Atom 966 local index 10003 global ID 1404 type 2 has 7695 neighbors.
Atom 967 local index 5172 global ID 189 type 1 has 7696 neighbors.
Atom 968 local index 5173 global ID 190 type 2 has 7697 neighbors.
Atom 969 local index 5174 global ID 191 type 1 has 7698 neighbors.
Atom 970 local index 5175 global ID 192 type 2 has 7699 neighbors.
Atom 971 local index 5176 global ID 193 type 1 has 7700 neighbors.
Atom 972 local index 5177 global ID 194 type 2 has 7701 neighbors.
Atom 973 local index 5178 global ID 195 type 1 has 7702 neighbors.
Atom 974 local index 5179 global ID 196 type 2 has 7703 neighbors.
Atom 975 local index 5180 global ID 197 type 1 has 7704 neighbors.
Atom 976 local index 5181 global ID 198 type 2 has 7705 neighbors.
Atom 977 local index 5182 global ID 199 type 1 has 7706 neighbors.
Atom 978 local index 5183 global ID 200 type 2 has 7707 neighbors.
Atom 979 local index 5184 global ID 201 type 1 has 7708 neighbors.
Atom 980 local index 5185 global ID 202 type 2 has 7709 neighbors.
Atom 981 local index 5186 global ID 203 type 1 has 7710 neighbors.
Atom 982 local index 5187 global ID 204 type 2 has 7711 neighbors.
Atom 983 local index 5188 global ID 1389 type 1 has 7712 neighbors.
Atom 984 local index 5189 global ID 1390 type 2 has 7713 neighbors.
Atom 985 local index 5190 global ID 1391 type 1 has 7714 neighbors.
Atom 986 local index 5191 global ID 1392 type 2 has 7715 neighbors.
Atom 987 local index 5192 global ID 1393 type 1 has 7716 neighbors.
Atom 988 local index 5193 global ID 1394 type 2 has 7717 neighbors.
Atom 989 local index 5194 global ID 1395 type 1 has 7718 neighbors.
Atom 990 local index 5195 global ID 1396 type 2 has 7719 neighbors.
Atom 991 local index 5196 global ID 1397 type 1 has 12492 neighbors.
Atom 992 local index 5197 global ID 1398 type 2 has 12493 neighbors.
Atom 993 local index 5198 global ID 1399 type 1 has 12494 neighbors.
Atom 994 local index 5199 global ID 1400 type 2 has 12495 neighbors.
Atom 995 local index 5200 global ID 1401 type 1 has 12496 neighbors.
Atom 996 local index 5201 global ID 1402 type 2 has 12497 neighbors.
Atom 997 local index 5202 global ID 1403 type 1 has 12498 neighbors.
Atom 998 local index 5203 global ID 1404 type 2 has 12499 neighbors.
Atom 999 local index 372 global ID 189 type 1 has 12500 neighbors.
Atom 1000 local index 373 global ID 190 type 2 has 12501 neighbors.
Atom 1001 local index 374 global ID 191 type 1 has 12502 neighbors.
Atom 1002 local index 375 global ID 192 type 2 has 12503 neighbors.
Atom 1003 local index 376 global ID 193 type 1 has 12506 neighbors.
Atom 1004 local index 377 global ID 194 type 2 has 12507 neighbors.
Atom 1005 local index 378 global ID 195 type 1 has 12508 neighbors.
Atom 1006 local index 379 global ID 196 type 2 has 12510 neighbors.
Atom 1007 local index 380 global ID 197 type 1 has 12511 neighbors.
Atom 1008 local index 381 global ID 198 type 2 has 12512 neighbors.
Atom 1009 local index 382 global ID 199 type 1 has 12513 neighbors.
Atom 1010 local index 383 global ID 200 type 2 has 12514 neighbors.
Atom 1011 local index 384 global ID 201 type 1 has 12515 neighbors.
Atom 1012 local index 385 global ID 202 type 2 has 12516 neighbors.
Atom 1013 local index 386 global ID 203 type 1 has 12517 neighbors.
Atom 1014 local index 387 global ID 204 type 2 has 12518 neighbors.
Atom 1015 local index 388 global ID 1389 type 1 has 12519 neighbors.
Atom 1016 local index 389 global ID 1390 type 2 has 17314 neighbors.
Atom 1017 local index 390 global ID 1391 type 1 has 17318 neighbors.
Atom 1018 local index 391 global ID 1392 type 2 has 19720 neighbors.
Atom 1019 local index 392 global ID 1393 type 1 has 19722 neighbors.
Atom 1020 local index 393 global ID 1394 type 2 has 19723 neighbors.
Atom 1021 local index 394 global ID 1395 type 1 has 19724 neighbors.
Atom 1022 local index 395 global ID 1396 type 2 has 19725 neighbors.
Atom 1023 local index 396 global ID 1397 type 1 has 19726 neighbors.
Atom 1024 local index 397 global ID 1398 type 2 has 19727 neighbors.
Atom 1025 local index 398 global ID 1399 type 1 has 19729 neighbors.
Atom 1026 local index 399 global ID 1400 type 2 has 19730 neighbors.
Atom 1027 local index 400 global ID 1401 type 1 has 19731 neighbors.
Atom 1028 local index 401 global ID 1402 type 2 has 19733 neighbors.
Atom 1029 local index 402 global ID 1403 type 1 has 19734 neighbors.
Atom 1030 local index 2772 global ID 189 type 1 has 19735 neighbors.
Atom 1031 local index 2773 global ID 190 type 2 has 19737 neighbors.
Atom 1032 local index 2774 global ID 191 type 1 has 19738 neighbors.
Atom 1033 local index 2775 global ID 192 type 2 has 19739 neighbors.
Atom 1034 local index 2776 global ID 193 type 1 has 19741 neighbors.
Atom 1035 local index 2777 global ID 194 type 2 has 19742 neighbors.
Atom 1036 local index 2778 global ID 195 type 1 has 19743 neighbors.
Atom 1037 local index 2779 global ID 196 type 2 has 19746 neighbors.
Atom 1038 local index 2780 global ID 197 type 1 has 19747 neighbors.
Atom 1039 local index 2781 global ID 198 type 2 has 14920 neighbors.
Atom 1040 local index 2782 global ID 199 type 1 has 14921 neighbors.
Atom 1041 local index 2783 global ID 200 type 2 has 14922 neighbors.
Atom 1042 local index 2784 global ID 201 type 1 has 14923 neighbors.
Atom 1043 local index 2785 global ID 202 type 2 has 14924 neighbors.
Atom 1044 local index 2786 global ID 203 type 1 has 14925 neighbors.
Atom 1045 local index 2787 global ID 204 type 2 has 14926 neighbors.
Atom 1046 local index 2788 global ID 1389 type 1 has 14927 neighbors.
Atom 1047 local index 2789 global ID 1390 type 2 has 14928 neighbors.
Atom 1048 local index 2790 global ID 1391 type 1 has 14929 neighbors.
Atom 1049 local index 2791 global ID 1392 type 2 has 14930 neighbors.
Atom 1050 local index 2792 global ID 1393 type 1 has 14931 neighbors.
Atom 1051 local index 2793 global ID 1394 type 2 has 14932 neighbors.
Atom 1052 local index 2794 global ID 1395 type 1 has 14933 neighbors.
Atom 1053 local index 2795 global ID 1396 type 2 has 14934 neighbors.
Atom 1054 local index 2796 global ID 1397 type 1 has 14935 neighbors.
Atom 1055 local index 2797 global ID 1398 type 2 has 14936 neighbors.
Atom 1056 local index 2798 global ID 1399 type 1 has 14937 neighbors.
Atom 1057 local index 2799 global ID 1400 type 2 has 14938 neighbors.
Atom 1058 local index 2800 global ID 1401 type 1 has 14939 neighbors.
Atom 1059 local index 2801 global ID 1402 type 2 has 14940 neighbors.
Atom 1060 local index 2802 global ID 1403 type 1 has 14941 neighbors.
Atom 1061 local index 2803 global ID 1404 type 2 has 14942 neighbors.
Atom 1062 local index 7572 global ID 189 type 1 has 14943 neighbors.
Atom 1063 local index 7573 global ID 190 type 2 has 14944 neighbors.
Atom 1064 local index 7574 global ID 191 type 1 has 14945 neighbors.
Atom 1065 local index 7575 global ID 192 type 2 has 14946 neighbors.
Atom 1066 local index 7576 global ID 193 type 1 has 14947 neighbors.
Atom 1067 local index 7577 global ID 194 type 2 has 10120 neighbors.
Atom 1068 local index 7578 global ID 195 type 1 has 10121 neighbors.
Atom 1069 local index 7579 global ID 196 type 2 has 10122 neighbors.
Atom 1070 local index 7580 global ID 197 type 1 has 10123 neighbors.
Atom 1071 local index 7581 global ID 198 type 2 has 10124 neighbors.
Atom 1072 local index 7582 global ID 199 type 1 has 10125 neighbors.
Atom 1073 local index 7583 global ID 200 type 2 has 10126 neighbors.
Atom 1074 local index 7584 global ID 201 type 1 has 10127 neighbors.
Atom 1075 local index 7585 global ID 202 type 2 has 10128 neighbors.
Atom 1076 local index 7586 global ID 203 type 1 has 10129 neighbors.
Atom 1077 local index 7587 global ID 204 type 2 has 10130 neighbors.
Atom 1078 local index 7588 global ID 1389 type 1 has 10131 neighbors.
Atom 1079 local index 7589 global ID 1390 type 2 has 10132 neighbors.
Atom 1080 local index 7590 global ID 1391 type 1 has 10133 neighbors.
Atom 1081 local index 7591 global ID 1392 type 2 has 10134 neighbors.
Atom 1082 local index 7592 global ID 1393 type 1 has 10135 neighbors.
Atom 1083 local index 7593 global ID 1394 type 2 has 10136 neighbors.
Atom 1084 local index 7594 global ID 1395 type 1 has 10137 neighbors.
Atom 1085 local index 7595 global ID 1396 type 2 has 10138 neighbors.
Atom 1086 local index 7596 global ID 1397 type 1 has 10139 neighbors.
Atom 1087 local index 7597 global ID 1398 type 2 has 10140 neighbors.
Atom 1088 local index 7598 global ID 1399 type 1 has 10141 neighbors.
Atom 1089 local index 7599 global ID 1400 type 2 has 10142 neighbors.
Atom 1090 local index 7600 global ID 1401 type 1 has 10143 neighbors.
Atom 1091 local index 7601 global ID 1402 type 2 has 10144 neighbors.
Atom 1092 local index 7602 global ID 1403 type 1 has 10145 neighbors.
Atom 1093 local index 7603 global ID 1404 type 2 has 10146 neighbors.
Atom 1094 local index 12372 global ID 189 type 1 has 10147 neighbors.
Atom 1095 local index 12373 global ID 190 type 2 has 5320 neighbors.
Atom 1096 local index 12374 global ID 191 type 1 has 5321 neighbors.
Atom 1097 local index 12375 global ID 192 type 2 has 5322 neighbors.
Atom 1098 local index 12376 global ID 193 type 1 has 5323 neighbors.
Atom 1099 local index 12377 global ID 194 type 2 has 5324 neighbors.
Atom 1100 local index 12378 global ID 195 type 1 has 5325 neighbors.
Atom 1101 local index 12379 global ID 196 type 2 has 5326 neighbors.
Atom 1102 local index 12380 global ID 197 type 1 has 5327 neighbors.
Atom 1103 local index 12381 global ID 198 type 2 has 5328 neighbors.
Atom 1104 local index 12382 global ID 199 type 1 has 5329 neighbors.
Atom 1105 local index 12383 global ID 200 type 2 has 5330 neighbors.
Atom 1106 local index 12384 global ID 201 type 1 has 5331 neighbors.
Atom 1107 local index 12385 global ID 202 type 2 has 5332 neighbors.
Atom 1108 local index 12386 global ID 203 type 1 has 5333 neighbors.
Atom 1109 local index 12387 global ID 204 type 2 has 5334 neighbors.
Atom 1110 local index 12388 global ID 1389 type 1 has 5335 neighbors.
Atom 1111 local index 12389 global ID 1390 type 2 has 5336 neighbors.
Atom 1112 local index 12390 global ID 1391 type 1 has 5337 neighbors.
Atom 1113 local index 12391 global ID 1392 type 2 has 5338 neighbors.
Atom 1114 local index 12392 global ID 1393 type 1 has 5339 neighbors.
Atom 1115 local index 12393 global ID 1394 type 2 has 5340 neighbors.
Atom 1116 local index 12394 global ID 1395 type 1 has 5341 neighbors.
Atom 1117 local index 12395 global ID 1396 type 2 has 5342 neighbors.
Atom 1118 local index 12396 global ID 1397 type 1 has 5343 neighbors.
Atom 1119 local index 12397 global ID 1398 type 2 has 5344 neighbors.
Atom 1120 local index 12398 global ID 1399 type 1 has 5345 neighbors.
Atom 1121 local index 12399 global ID 1400 type 2 has 5346 neighbors.
Atom 1122 local index 12400 global ID 1401 type 1 has 5347 neighbors.
Atom 1123 local index 12401 global ID 1402 type 2 has 520 neighbors.
Atom 1124 local index 12402 global ID 1403 type 1 has 521 neighbors.
Atom 1125 local index 12403 global ID 1404 type 2 has 522 neighbors.
Atom 1126 local index 17174 global ID 191 type 1 has 523 neighbors.
Atom 1127 local index 17175 global ID 192 type 2 has 524 neighbors.
Atom 1128 local index 17178 global ID 195 type 1 has 525 neighbors.
Atom 1129 local index 17179 global ID 196 type 2 has 526 neighbors.
Atom 1130 local index 17180 global ID 197 type 1 has 527 neighbors.
Atom 1131 local index 17182 global ID 199 type 1 has 528 neighbors.
Atom 1132 local index 17183 global ID 200 type 2 has 529 neighbors.
Atom 1133 local index 17184 global ID 201 type 1 has 530 neighbors.
Atom 1134 local index 17186 global ID 203 type 1 has 531 neighbors.
Atom 1135 local index 17187 global ID 204 type 2 has 532 neighbors.
Atom 1136 local index 17188 global ID 1389 type 1 has 533 neighbors.
Atom 1137 local index 17189 global ID 1390 type 2 has 534 neighbors.
Atom 1138 local index 17190 global ID 1391 type 1 has 535 neighbors.
Atom 1139 local index 17192 global ID 1393 type 1 has 536 neighbors.
Atom 1140 local index 17193 global ID 1394 type 2 has 538 neighbors.
Atom 1141 local index 17194 global ID 1395 type 1 has 539 neighbors.
Atom 1142 local index 17196 global ID 1397 type 1 has 540 neighbors.
Atom 1143 local index 17197 global ID 1398 type 2 has 541 neighbors.
[...]
Atom 2115 local index 443 global ID 230 type 2 has 7757 neighbors.
Atom 2116 local index 444 global ID 231 type 1 has 7758 neighbors.
Atom 2117 local index 445 global ID 232 type 2 has 7759 neighbors.
Atom 2118 local index 446 global ID 1418 type 2 has 7760 neighbors.
Atom 2119 local index 447 global ID 1419 type 1 has 7761 neighbors.
Atom 2120 local index 448 global ID 1421 type 1 has 7762 neighbors.
Atom 2121 local index 449 global ID 1422 type 2 has 7763 neighbors.
Atom 2122 local index 450 global ID 1423 type 1 has 7764 neighbors.
Atom 2123 local index 451 global ID 1424 type 2 has 7765 neighbors.
Atom 2124 local index 452 global ID 1425 type 1 has 7766 neighbors.
Atom 2125 local index 453 global ID 1426 type 2 has 7767 neighbors.
Atom 2126 local index 454 global ID 1427 type 1 has 7768 neighbors.
Atom 2127 local index 455 global ID 1428 type 2 has 7769 neighbors.
Atom 2128 local index 456 global ID 1429 type 1 has 7770 neighbors.
Atom 2129 local index 457 global ID 1430 type 2 has 7771 neighbors.
Atom 2130 local index 458 global ID 1431 type 1 has 7772 neighbors.
Atom 2131 local index 459 global ID 1432 type 2 has 7773 neighbors.
Atom 2132 local index 2832 global ID 218 type 2 has 7774 neighbors.
Atom 2133 local index 2833 global ID 219 type 1 has 7775 neighbors.
Atom 2134 local index 2834 global ID 221 type 1 has 12548 neighbors.
Atom 2135 local index 2835 global ID 222 type 2 has 12549 neighbors.
Atom 2136 local index 2836 global ID 223 type 1 has 12550 neighbors.
Atom 2137 local index 2837 global ID 224 type 2 has 12551 neighbors.
Atom 2138 local index 2838 global ID 225 type 1 has 12552 neighbors.
Atom 2139 local index 2839 global ID 226 type 2 has 12553 neighbors.
Atom 2140 local index 2840 global ID 227 type 1 has 12554 neighbors.
Atom 2141 local index 2841 global ID 228 type 2 has 12555 neighbors.
Atom 2142 local index 2842 global ID 229 type 1 has 12556 neighbors.
Atom 2143 local index 2843 global ID 230 type 2 has 12558 neighbors.
Atom 2144 local index 2844 global ID 231 type 1 has 12559 neighbors.
Atom 2145 local index 2845 global ID 232 type 2 has 12562 neighbors.
Atom 2146 local index 2846 global ID 1418 type 2 has 12563 neighbors.
Atom 2147 local index 2847 global ID 1419 type 1 has 12564 neighbors.
Atom 2148 local index 2848 global ID 1421 type 1 has 12565 neighbors.
Atom 2149 local index 2849 global ID 1422 type 2 has 12566 neighbors.
Atom 2150 local index 2850 global ID 1423 type 1 has 12567 neighbors.
Atom 2151 local index 2851 global ID 1424 type 2 has 12568 neighbors.
Atom 2152 local index 2852 global ID 1425 type 1 has 12569 neighbors.
Atom 2153 local index 2853 global ID 1426 type 2 has 12570 neighbors.
Atom 2154 local index 2854 global ID 1427 type 1 has 12571 neighbors.
Atom 2155 local index 2855 global ID 1428 type 2 has 12573 neighbors.
Atom 2156 local index 2856 global ID 1429 type 1 has 12574 neighbors.
Atom 2157 local index 2857 global ID 1430 type 2 has 17350 neighbors.
Atom 2158 local index 2858 global ID 1431 type 1 has 17351 neighbors.
Atom 2159 local index 2859 global ID 1432 type 2 has 17362 neighbors.
Atom 2160 local index 7632 global ID 218 type 2 has 17363 neighbors.
Atom 2161 local index 7633 global ID 219 type 1 has 17366 neighbors.
Atom 2162 local index 7634 global ID 221 type 1 has 10176 neighbors.
Atom 2163 local index 7635 global ID 222 type 2 has 10191 neighbors.
Atom 2164 local index 7636 global ID 223 type 1 has 5376 neighbors.
Atom 2165 local index 7637 global ID 224 type 2 has 5377 neighbors.
Atom 2166 local index 7638 global ID 225 type 1 has 5378 neighbors.
Atom 2167 local index 7639 global ID 226 type 2 has 5381 neighbors.
Atom 2168 local index 7640 global ID 227 type 1 has 5390 neighbors.
Atom 2169 local index 7641 global ID 228 type 2 has 5391 neighbors.
Atom 2170 local index 7642 global ID 229 type 1 has 5392 neighbors.
Atom 2171 local index 7644 global ID 231 type 1 has 5395 neighbors.
Atom 2172 local index 7645 global ID 232 type 2 has 576 neighbors.
Atom 2173 local index 7646 global ID 1418 type 2 has 577 neighbors.
Atom 2174 local index 7647 global ID 1419 type 1 has 578 neighbors.
Atom 2175 local index 7648 global ID 1421 type 1 has 579 neighbors.
Atom 2176 local index 7649 global ID 1422 type 2 has 580 neighbors.
Atom 2177 local index 7650 global ID 1423 type 1 has 581 neighbors.
Atom 2178 local index 7651 global ID 1424 type 2 has 590 neighbors.
Atom 2179 local index 7652 global ID 1425 type 1 has 591 neighbors.
Atom 2180 local index 7653 global ID 1426 type 2 has 592 neighbors.
Atom 2181 local index 7654 global ID 1427 type 1 has 593 neighbors.
Atom 2182 local index 7655 global ID 1428 type 2 has 594 neighbors.
Atom 2183 local index 7656 global ID 1429 type 1 has 595 neighbors.
Atom 2184 local index 7657 global ID 1430 type 2 has 2976 neighbors.
Atom 2185 local index 7659 global ID 1432 type 2 has 2977 neighbors.
Atom 2186 local index 12432 global ID 218 type 2 has 2978 neighbors.
Atom 2187 local index 12433 global ID 219 type 1 has 2981 neighbors.
Atom 2188 local index 12434 global ID 221 type 1 has 2990 neighbors.
Atom 2189 local index 12435 global ID 222 type 2 has 2991 neighbors.
Atom 2190 local index 12436 global ID 223 type 1 has 2992 neighbors.
Atom 2191 local index 12437 global ID 224 type 2 has 2993 neighbors.
Atom 2192 local index 12440 global ID 227 type 1 has 2995 neighbors.
Atom 2193 local index 12441 global ID 228 type 2 has 7777 neighbors.
Atom 2194 local index 12446 global ID 1418 type 2 has 7790 neighbors.
Atom 2195 local index 12447 global ID 1419 type 1 has 7791 neighbors.
Atom 2196 local index 12448 global ID 1421 type 1 has 7792 neighbors.
Atom 2197 local index 12449 global ID 1422 type 2 has 10068 neighbors.
Atom 2198 local index 12450 global ID 1423 type 1 has 10069 neighbors.
Atom 2199 local index 12451 global ID 1424 type 2 has 10070 neighbors.
Atom 2200 local index 12452 global ID 1425 type 1 has 10072 neighbors.
Atom 2201 local index 12453 global ID 1426 type 2 has 10073 neighbors.
Atom 2202 local index 17233 global ID 219 type 1 has 10083 neighbors.
Atom 2203 local index 17246 global ID 1418 type 2 has 10084 neighbors.
Atom 2204 local index 17248 global ID 1421 type 1 has 10085 neighbors.
Atom 2205 local index 460 global ID 233 type 1 has 10086 neighbors.
Atom 2206 local index 463 global ID 236 type 2 has 10087 neighbors.
Atom 2207 local index 477 global ID 1436 type 2 has 5265 neighbors.
Atom 2208 local index 2863 global ID 236 type 2 has 5266 neighbors.
Atom 2209 local index 2874 global ID 1433 type 1 has 5268 neighbors.
Atom 2210 local index 9954 global ID 185 type 1 has 5269 neighbors.
Atom 2211 local index 9956 global ID 187 type 1 has 5270 neighbors.
Atom 2212 local index 9957 global ID 188 type 2 has 5271 neighbors.
Atom 2213 local index 9969 global ID 1386 type 2 has 5272 neighbors.
Atom 2214 local index 9970 global ID 1387 type 1 has 5273 neighbors.
Atom 2215 local index 9971 global ID 1388 type 2 has 5279 neighbors.
Atom 2216 local index 5150 global ID 181 type 1 has 5280 neighbors.
Atom 2217 local index 5151 global ID 182 type 2 has 5282 neighbors.
Atom 2218 local index 5152 global ID 183 type 1 has 5283 neighbors.
Atom 2219 local index 5153 global ID 184 type 2 has 5284 neighbors.
Atom 2220 local index 5154 global ID 185 type 1 has 5285 neighbors.
Atom 2221 local index 5155 global ID 186 type 2 has 5286 neighbors.
Atom 2222 local index 5156 global ID 187 type 1 has 5287 neighbors.
Atom 2223 local index 5157 global ID 188 type 2 has 464 neighbors.
Atom 2224 local index 5165 global ID 1382 type 2 has 465 neighbors.
Atom 2225 local index 5166 global ID 1383 type 1 has 466 neighbors.
Atom 2226 local index 5167 global ID 1384 type 2 has 467 neighbors.
Atom 2227 local index 5168 global ID 1385 type 1 has 468 neighbors.
Atom 2228 local index 5169 global ID 1386 type 2 has 469 neighbors.
Atom 2229 local index 5170 global ID 1387 type 1 has 470 neighbors.
Atom 2230 local index 5171 global ID 1388 type 2 has 471 neighbors.
Atom 2231 local index 348 global ID 179 type 1 has 472 neighbors.
Atom 2232 local index 350 global ID 181 type 1 has 473 neighbors.
Atom 2233 local index 351 global ID 182 type 2 has 478 neighbors.
Atom 2234 local index 352 global ID 183 type 1 has 479 neighbors.
Atom 2235 local index 353 global ID 184 type 2 has 480 neighbors.
Atom 2236 local index 354 global ID 185 type 1 has 481 neighbors.
Atom 2237 local index 355 global ID 186 type 2 has 482 neighbors.
Atom 2238 local index 356 global ID 187 type 1 has 483 neighbors.
Atom 2239 local index 357 global ID 188 type 2 has 484 neighbors.
Atom 2240 local index 362 global ID 1379 type 1 has 485 neighbors.
Atom 2241 local index 364 global ID 1381 type 1 has 486 neighbors.
Atom 2242 local index 365 global ID 1382 type 2 has 487 neighbors.
Atom 2243 local index 366 global ID 1383 type 1 has 2865 neighbors.
Atom 2244 local index 367 global ID 1384 type 2 has 2866 neighbors.
Atom 2245 local index 368 global ID 1385 type 1 has 2868 neighbors.
Atom 2246 local index 369 global ID 1386 type 2 has 2869 neighbors.
Atom 2247 local index 370 global ID 1387 type 1 has 2870 neighbors.
Atom 2248 local index 371 global ID 1388 type 2 has 2871 neighbors.
Atom 2249 local index 2747 global ID 178 type 2 has 2872 neighbors.
Atom 2250 local index 2748 global ID 179 type 1 has 2873 neighbors.
Atom 2251 local index 2750 global ID 181 type 1 has 2878 neighbors.
Atom 2252 local index 2751 global ID 182 type 2 has 2879 neighbors.
Atom 2253 local index 2752 global ID 183 type 1 has 2880 neighbors.
Atom 2254 local index 2753 global ID 184 type 2 has 2882 neighbors.
Atom 2255 local index 2754 global ID 185 type 1 has 2883 neighbors.
Atom 2256 local index 2755 global ID 186 type 2 has 2884 neighbors.
Atom 2257 local index 2756 global ID 187 type 1 has 2885 neighbors.
Atom 2258 local index 2757 global ID 188 type 2 has 2886 neighbors.
Atom 2259 local index 2761 global ID 1378 type 2 has 2887 neighbors.
Atom 2260 local index 2764 global ID 1381 type 1 has 7666 neighbors.
Atom 2261 local index 2765 global ID 1382 type 2 has 7668 neighbors.
Atom 2262 local index 2766 global ID 1383 type 1 has 7669 neighbors.
Atom 2263 local index 2767 global ID 1384 type 2 has 7670 neighbors.
Atom 2264 local index 2768 global ID 1385 type 1 has 7671 neighbors.
Atom 2265 local index 2769 global ID 1386 type 2 has 7672 neighbors.
Atom 2266 local index 2770 global ID 1387 type 1 has 7673 neighbors.
Atom 2267 local index 2771 global ID 1388 type 2 has 7679 neighbors.
Atom 2268 local index 7551 global ID 182 type 2 has 7682 neighbors.
Atom 2269 local index 7552 global ID 183 type 1 has 7683 neighbors.
Atom 2270 local index 7553 global ID 184 type 2 has 7684 neighbors.
Atom 2271 local index 7554 global ID 185 type 1 has 7685 neighbors.
Atom 2272 local index 7555 global ID 186 type 2 has 7686 neighbors.
Atom 2273 local index 7556 global ID 187 type 1 has 7687 neighbors.
Atom 2274 local index 7557 global ID 188 type 2 has 12470 neighbors.
Atom 2275 local index 7564 global ID 1381 type 1 has 12473 neighbors.
Atom 2276 local index 7565 global ID 1382 type 2 has 12483 neighbors.
Atom 2277 local index 7566 global ID 1383 type 1 has 12486 neighbors.
Atom 2278 local index 7568 global ID 1385 type 1 has 19699 neighbors.
Atom 2279 local index 7569 global ID 1386 type 2 has 19719 neighbors.
Atom 2280 local index 7570 global ID 1387 type 1 has 14888 neighbors.
Atom 2281 local index 7571 global ID 1388 type 2 has 14890 neighbors.
Atom 2282 local index 12351 global ID 182 type 2 has 14891 neighbors.
Atom 2283 local index 12355 global ID 186 type 2 has 14894 neighbors.
Atom 2284 local index 12356 global ID 187 type 1 has 14895 neighbors.
Atom 2285 local index 12357 global ID 188 type 2 has 14896 neighbors.
Atom 2286 local index 12368 global ID 1385 type 1 has 14897 neighbors.
Atom 2287 local index 12369 global ID 1386 type 2 has 14898 neighbors.
Atom 2288 local index 12370 global ID 1387 type 1 has 14899 neighbors.
Atom 2289 local index 19585 global ID 202 type 2 has 14900 neighbors.
Atom 2290 local index 14772 global ID 189 type 1 has 14901 neighbors.
Atom 2291 local index 14773 global ID 190 type 2 has 14902 neighbors.
Atom 2292 local index 14776 global ID 193 type 1 has 14903 neighbors.
Atom 2293 local index 14777 global ID 194 type 2 has 14905 neighbors.
Atom 2294 local index 14778 global ID 195 type 1 has 14907 neighbors.
Atom 2295 local index 14779 global ID 196 type 2 has 14908 neighbors.
Atom 2296 local index 14780 global ID 197 type 1 has 14909 neighbors.
Atom 2297 local index 14781 global ID 198 type 2 has 14910 neighbors.
Atom 2298 local index 14782 global ID 199 type 1 has 14911 neighbors.
Atom 2299 local index 14783 global ID 200 type 2 has 14912 neighbors.
Atom 2300 local index 14784 global ID 201 type 1 has 14913 neighbors.
Atom 2301 local index 14785 global ID 202 type 2 has 14914 neighbors.
Atom 2302 local index 14786 global ID 203 type 1 has 14915 neighbors.
Atom 2303 local index 14787 global ID 204 type 2 has 14916 neighbors.
Atom 2304 local index 14790 global ID 1391 type 1 has 14917 neighbors.
Atom 2305 local index 14793 global ID 1394 type 2 has 14918 neighbors.
Atom 2306 local index 14794 global ID 1395 type 1 has 14919 neighbors.
Atom 2307 local index 14795 global ID 1396 type 2 has 10088 neighbors.
Atom 2308 local index 14797 global ID 1398 type 2 has 10089 neighbors.
Atom 2309 local index 14798 global ID 1399 type 1 has 10090 neighbors.
Atom 2310 local index 14799 global ID 1400 type 2 has 10091 neighbors.
Atom 2311 local index 14800 global ID 1401 type 1 has 10092 neighbors.
Atom 2312 local index 14801 global ID 1402 type 2 has 10093 neighbors.
Atom 2313 local index 14802 global ID 1403 type 1 has 10094 neighbors.
Atom 2314 local index 14803 global ID 1404 type 2 has 10095 neighbors.
Atom 2315 local index 9972 global ID 189 type 1 has 10096 neighbors.
Atom 2316 local index 9973 global ID 190 type 2 has 10097 neighbors.
Atom 2317 local index 9974 global ID 191 type 1 has 10098 neighbors.
Atom 2318 local index 9975 global ID 192 type 2 has 10099 neighbors.
Atom 2319 local index 9976 global ID 193 type 1 has 10100 neighbors.
Atom 2320 local index 9977 global ID 194 type 2 has 10101 neighbors.
Atom 2321 local index 9978 global ID 195 type 1 has 10102 neighbors.
Atom 2322 local index 9979 global ID 196 type 2 has 10103 neighbors.
Atom 2323 local index 9980 global ID 197 type 1 has 10104 neighbors.
Atom 2324 local index 9981 global ID 198 type 2 has 10105 neighbors.
Atom 2325 local index 9982 global ID 199 type 1 has 10106 neighbors.
Atom 2326 local index 9983 global ID 200 type 2 has 10107 neighbors.
Atom 2327 local index 9984 global ID 201 type 1 has 10108 neighbors.
Atom 2328 local index 9985 global ID 202 type 2 has 10109 neighbors.
Atom 2329 local index 9986 global ID 203 type 1 has 10110 neighbors.
Atom 2330 local index 9987 global ID 204 type 2 has 10111 neighbors.
Atom 2331 local index 9988 global ID 1389 type 1 has 10112 neighbors.
Atom 2332 local index 9989 global ID 1390 type 2 has 10113 neighbors.
Atom 2333 local index 9990 global ID 1391 type 1 has 10114 neighbors.
Atom 2334 local index 9991 global ID 1392 type 2 has 10115 neighbors.
Atom 2335 local index 9992 global ID 1393 type 1 has 10116 neighbors.
Atom 2336 local index 9993 global ID 1394 type 2 has 10117 neighbors.
Atom 2337 local index 9994 global ID 1395 type 1 has 10118 neighbors.
Atom 2338 local index 9995 global ID 1396 type 2 has 10119 neighbors.
Atom 2339 local index 9996 global ID 1397 type 1 has 5288 neighbors.
Atom 2340 local index 9997 global ID 1398 type 2 has 5289 neighbors.
Atom 2341 local index 9998 global ID 1399 type 1 has 5290 neighbors.
Atom 2342 local index 9999 global ID 1400 type 2 has 5291 neighbors.
Atom 2343 local index 10000 global ID 1401 type 1 has 5292 neighbors.
Atom 2344 local index 10001 global ID 1402 type 2 has 5293 neighbors.
Atom 2345 local index 10002 global ID 1403 type 1 has 5294 neighbors.
Atom 2346 local index 10003 global ID 1404 type 2 has 5295 neighbors.
Atom 2347 local index 5172 global ID 189 type 1 has 5296 neighbors.
Atom 2348 local index 5173 global ID 190 type 2 has 5297 neighbors.
Atom 2349 local index 5174 global ID 191 type 1 has 5298 neighbors.
Atom 2350 local index 5175 global ID 192 type 2 has 5299 neighbors.
Atom 2351 local index 5176 global ID 193 type 1 has 5300 neighbors.
Atom 2352 local index 5177 global ID 194 type 2 has 5301 neighbors.
Atom 2353 local index 5178 global ID 195 type 1 has 5302 neighbors.
Atom 2354 local index 5179 global ID 196 type 2 has 5303 neighbors.
Atom 2355 local index 5180 global ID 197 type 1 has 5304 neighbors.
Atom 2356 local index 5181 global ID 198 type 2 has 5305 neighbors.
Atom 2357 local index 5182 global ID 199 type 1 has 5306 neighbors.
Atom 2358 local index 5183 global ID 200 type 2 has 5307 neighbors.
Atom 2359 local index 5184 global ID 201 type 1 has 5308 neighbors.
Atom 2360 local index 5185 global ID 202 type 2 has 5309 neighbors.
Atom 2361 local index 5186 global ID 203 type 1 has 5310 neighbors.
Atom 2362 local index 5187 global ID 204 type 2 has 5311 neighbors.
Atom 2363 local index 5188 global ID 1389 type 1 has 5312 neighbors.
Atom 2364 local index 5189 global ID 1390 type 2 has 5313 neighbors.
Atom 2365 local index 5190 global ID 1391 type 1 has 5314 neighbors.
Atom 2366 local index 5191 global ID 1392 type 2 has 5315 neighbors.
Atom 2367 local index 5192 global ID 1393 type 1 has 5316 neighbors.
Atom 2368 local index 5193 global ID 1394 type 2 has 5317 neighbors.
Atom 2369 local index 5194 global ID 1395 type 1 has 5318 neighbors.
Atom 2370 local index 5195 global ID 1396 type 2 has 5319 neighbors.
Atom 2371 local index 5196 global ID 1397 type 1 has 488 neighbors.
Atom 2372 local index 5197 global ID 1398 type 2 has 489 neighbors.
Atom 2373 local index 5198 global ID 1399 type 1 has 490 neighbors.
Atom 2374 local index 5199 global ID 1400 type 2 has 491 neighbors.
Atom 2375 local index 5200 global ID 1401 type 1 has 492 neighbors.
Atom 2376 local index 5201 global ID 1402 type 2 has 493 neighbors.
Atom 2377 local index 5202 global ID 1403 type 1 has 494 neighbors.
Atom 2378 local index 5203 global ID 1404 type 2 has 495 neighbors.
Atom 2379 local index 372 global ID 189 type 1 has 496 neighbors.
Atom 2380 local index 373 global ID 190 type 2 has 497 neighbors.
Atom 2381 local index 374 global ID 191 type 1 has 498 neighbors.
Atom 2382 local index 375 global ID 192 type 2 has 499 neighbors.
Atom 2383 local index 376 global ID 193 type 1 has 500 neighbors.
Atom 2384 local index 377 global ID 194 type 2 has 501 neighbors.
Atom 2385 local index 378 global ID 195 type 1 has 502 neighbors.
Atom 2386 local index 379 global ID 196 type 2 has 503 neighbors.
Atom 2387 local index 380 global ID 197 type 1 has 504 neighbors.
Atom 2388 local index 381 global ID 198 type 2 has 505 neighbors.
Atom 2389 local index 382 global ID 199 type 1 has 506 neighbors.
Atom 2390 local index 383 global ID 200 type 2 has 507 neighbors.
Atom 2391 local index 384 global ID 201 type 1 has 508 neighbors.
Atom 2392 local index 385 global ID 202 type 2 has 509 neighbors.
Atom 2393 local index 386 global ID 203 type 1 has 510 neighbors.
Atom 2394 local index 387 global ID 204 type 2 has 511 neighbors.
Atom 2395 local index 388 global ID 1389 type 1 has 512 neighbors.
Atom 2396 local index 389 global ID 1390 type 2 has 513 neighbors.
Atom 2397 local index 390 global ID 1391 type 1 has 514 neighbors.
Atom 2398 local index 391 global ID 1392 type 2 has 515 neighbors.
Atom 2399 local index 392 global ID 1393 type 1 has 516 neighbors.
0 0 0 0.561669
Per MPI rank memory allocation (min/avg/max) = 30.39 | 30.39 | 30.39 Mbytes
   Step          Temp          PotEng         KinEng         TotEng         Press         c_vac[1]       c_vac[2]       c_vac[3]       c_vac[4]   
         0   0.20346667    -16121.503      0.063094014   -16121.44      -662.80764      0.0053425675   0.00022715013  0.037073419    0.042643136  
20591
1 2400
