#atom    q_infty         q_0             q_p             q_i             d
B       0.48789986 -0.23188718 -0.00510248 -0.01516123  1.24695713
N      -0.48691293  0.26146653  0.00694885  0.0241067   1.16481849