
     Program PHONON v.7.3.1 starts on 12Aug2025 at 16:33:21 

     This program is part of the open-source Quantum ESPRESSO suite
     for quantum simulation of materials; please cite
         "P. Giannozzi et al., J. Phys.:Condens. Matter 21 395502 (2009);
         "P. Giannozzi et al., J. Phys.:Condens. Matter 29 465901 (2017);
         "P. Giannozzi et al., J. Chem. Phys. 152 154105 (2020);
          URL http://www.quantum-espresso.org", 
     in publications or presentations arising from this work. More details at
     http://www.quantum-espresso.org/quote

     Parallel version (MPI & OpenMP), running on      80 processor cores
     Number of MPI processes:                 4
     Threads/MPI process:                    20

     MPI processes distributed on     1 nodes
     827237 MiB available memory on the printing compute node when the environment starts
 
     Reading input from aiida.in
      Title line not specified: using 'default'.
     Run is not recoverable starting from scratch

     Reading xml data from directory:

     ./out/aiida.save/
 
     R & G space division:  proc/nbgrp/npool/nimage =       4
     Subspace diagonalization in iterative solution of the eigenvalue problem:
     a serial algorithm will be used


     IMPORTANT: XC functional enforced from input :
     Exchange-correlation= PBESOL
                           (   1   4  10   8   0   0   0)
     Any further DFT definition will be discarded
     Please, verify this is what you really want

 
     Parallelization info
     --------------------
     sticks:   dense  smooth     PW     G-vecs:    dense   smooth      PW
     Min         186      91     29                49146    17331    3021
     Max         187      92     31                49203    17370    3045
     Sum         745     367    121               196655    69429   12131
 
     Using Slab Decomposition
 
 ----2D----2D----2D----2D----2D----2D----2D----2D----2D----2D----2D----2D
  The code is running with the 2D cutoff
  Please refer to:
  Sohier, T., Calandra, M., & Mauri, F. (2017), 
  Density functional perturbation theory for gated two-dimensional heterostructures:
  Theoretical developments and application to flexural phonons in graphene.
  Physical Review B, 96(7), 75448. https://doi.org/10.1103/PhysRevB.96.075448
 ----2D----2D----2D----2D----2D----2D----2D----2D----2D----2D----2D----2D

     negative rho (up, down):  3.632E-05 0.000E+00
     Reading collected, re-writing distributed wavefunctions in ./out/


     Dynamical matrices for ( 1, 1, 1)  uniform grid of q-points
     (   1 q-points):
       N         xq(1)         xq(2)         xq(3) 
       1   0.000000000   0.000000000   0.000000000

     Number and degeneracy of irreps per q-point
       N         xq(1)         xq(2)         xq(3)   N irreps
  autoval = -.1184E+01
     Irreps are as follows:

                     mode #   1
                     (  -0.00000   0.00000   ) 
                     (  -0.00000   0.00000   ) 
                     (  -0.00000   0.00000   ) 
                     (  -0.00000   0.00000   ) 
                     (  -0.00000   0.00000   ) 
                     (  -0.00000   0.00000   ) 
                     (  -1.00000  -0.00000   ) 
                     (   0.00073   0.00000   ) 
                     (  -0.00000   0.00000   ) 
                     (  -0.00000   0.00000   ) 
                     (  -0.00000   0.00000   ) 
                     (  -0.00000   0.00000   ) 
  autoval = -.1184E+01
     Irreps are as follows:

                     mode #   2
                     (   0.00000  -0.00000   ) 
                     (   0.00000  -0.00000   ) 
                     (   0.00000  -0.00000   ) 
                     (   0.00000  -0.00000   ) 
                     (   0.00000  -0.00000   ) 
                     (   0.00000  -0.00000   ) 
                     (  -0.00073  -0.00000   ) 
                     (  -1.00000  -0.00000   ) 
                     (   0.00000  -0.00000   ) 
                     (   0.00000  -0.00000   ) 
                     (   0.00000  -0.00000   ) 
                     (   0.00000  -0.00000   ) 
  autoval = -.4728E+00
     Irreps are as follows:

                     mode #   3
                     (  -0.00000   0.00000   ) 
                     (  -0.00000   0.00000   ) 
                     (  -0.00000   0.00000   ) 
                     (  -0.00000   0.00000   ) 
                     (  -0.00000   0.00000   ) 
                     (  -0.00000   0.00000   ) 
                     (  -0.00000   0.00000   ) 
                     (  -0.00000   0.00000   ) 
                     (  -0.00000   0.00000   ) 
                     (  -1.00000  -0.00000   ) 
                     (  -0.00155  -0.00000   ) 
                     (  -0.00000   0.00000   ) 
  autoval = -.4728E+00
     Irreps are as follows:

                     mode #   4
                     (  -0.00000   0.00000   ) 
                     (  -0.00000   0.00000   ) 
                     (  -0.00000   0.00000   ) 
                     (  -0.00000   0.00000   ) 
                     (  -0.00000   0.00000   ) 
                     (  -0.00000   0.00000   ) 
                     (  -0.00000   0.00000   ) 
                     (  -0.00000   0.00000   ) 
                     (  -0.00000   0.00000   ) 
                     (  -0.00155  -0.00000   ) 
                     (   1.00000  -0.00000   ) 
                     (  -0.00000  -0.00000   ) 
  autoval = -.1886E-01
     Irreps are as follows:

                     mode #   5
                     (  -0.00000   0.00000   ) 
                     (  -0.00000   0.00000   ) 
                     (  -1.00000  -0.00000   ) 
                     (  -0.00000  -0.00000   ) 
                     (  -0.00000  -0.00000   ) 
                     (  -0.00000  -0.00000   ) 
                     (  -0.00000  -0.00000   ) 
                     (  -0.00000  -0.00000   ) 
                     (  -0.00000  -0.00000   ) 
                     (  -0.00000  -0.00000   ) 
                     (  -0.00000  -0.00000   ) 
                     (  -0.00000  -0.00000   ) 
  autoval = -.8777E-02
     Irreps are as follows:

                     mode #   6
                     (  -0.00000  -0.00000   ) 
                     (  -0.00000  -0.00000   ) 
                     (  -0.00000  -0.00000   ) 
                     (  -0.00000  -0.00000   ) 
                     (  -0.00000  -0.00000   ) 
                     (  -0.00000  -0.00000   ) 
                     (  -0.00000  -0.00000   ) 
                     (  -0.00000  -0.00000   ) 
                     (  -0.00000  -0.00000   ) 
                     (  -0.00000  -0.00000   ) 
                     (  -0.00000  -0.00000   ) 
                     (  -1.00000  -0.00000   ) 
  autoval = 0.1490E-02
     Irreps are as follows:

                     mode #   7
                     (  -0.00000   0.00000   ) 
                     (  -0.00000   0.00000   ) 
                     (  -0.00000   0.00000   ) 
                     (  -0.00000   0.00000   ) 
                     (  -0.00000   0.00000   ) 
                     (  -0.00000   0.00000   ) 
                     (  -0.00000   0.00000   ) 
                     (  -0.00000   0.00000   ) 
                     (  -1.00000  -0.00000   ) 
                     (  -0.00000  -0.00000   ) 
                     (  -0.00000  -0.00000   ) 
                     (  -0.00000  -0.00000   ) 
  autoval = 0.1790E-02
     Irreps are as follows:

                     mode #   8
                     (  -0.00000   0.00000   ) 
                     (  -0.00000   0.00000   ) 
                     (  -0.00000   0.00000   ) 
                     (  -0.00000   0.00000   ) 
                     (  -0.00000   0.00000   ) 
                     (  -1.00000  -0.00000   ) 
                     (  -0.00000  -0.00000   ) 
                     (  -0.00000  -0.00000   ) 
                     (  -0.00000  -0.00000   ) 
                     (  -0.00000  -0.00000   ) 
                     (  -0.00000  -0.00000   ) 
                     (  -0.00000  -0.00000   ) 
  autoval = 0.1711E+01
     Irreps are as follows:

                     mode #   9
                     (  -0.00000   0.00000   ) 
                     (  -0.00000   0.00000   ) 
                     (  -0.00000   0.00000   ) 
                     (  -0.00084  -0.00000   ) 
                     (  -1.00000  -0.00000   ) 
                     (  -0.00000  -0.00000   ) 
                     (  -0.00000  -0.00000   ) 
                     (  -0.00000  -0.00000   ) 
                     (  -0.00000  -0.00000   ) 
                     (  -0.00000  -0.00000   ) 
                     (  -0.00000  -0.00000   ) 
                     (  -0.00000  -0.00000   ) 
  autoval = 0.1711E+01
     Irreps are as follows:

                     mode #  10
                     (  -0.00000   0.00000   ) 
                     (  -0.00000   0.00000   ) 
                     (  -0.00000   0.00000   ) 
                     (  -1.00000  -0.00000   ) 
                     (   0.00084   0.00000   ) 
                     (  -0.00000   0.00000   ) 
                     (  -0.00000   0.00000   ) 
                     (  -0.00000   0.00000   ) 
                     (  -0.00000   0.00000   ) 
                     (  -0.00000   0.00000   ) 
                     (  -0.00000   0.00000   ) 
                     (  -0.00000   0.00000   ) 
  autoval = 0.2106E+01
     Irreps are as follows:

                     mode #  11
                     (  -0.00000   0.00000   ) 
                     (  -1.00000  -0.00000   ) 
                     (  -0.00000  -0.00000   ) 
                     (  -0.00000  -0.00000   ) 
                     (  -0.00000  -0.00000   ) 
                     (  -0.00000  -0.00000   ) 
                     (  -0.00000  -0.00000   ) 
                     (  -0.00000  -0.00000   ) 
                     (  -0.00000  -0.00000   ) 
                     (  -0.00000  -0.00000   ) 
                     (  -0.00000  -0.00000   ) 
                     (  -0.00000  -0.00000   ) 
  autoval = 0.2106E+01
     Irreps are as follows:

                     mode #  12
                     (  -1.00000  -0.00000   ) 
                     (  -0.00000  -0.00000   ) 
                     (  -0.00000  -0.00000   ) 
                     (  -0.00000  -0.00000   ) 
                     (  -0.00000  -0.00000   ) 
                     (  -0.00000  -0.00000   ) 
                     (  -0.00000  -0.00000   ) 
                     (  -0.00000  -0.00000   ) 
                     (  -0.00000  -0.00000   ) 
                     (  -0.00000  -0.00000   ) 
                     (  -0.00000  -0.00000   ) 
                     (  -0.00000  -0.00000   ) 
       1   0.000000000   0.000000000   0.000000000       8
        1   1   1   1   2   2   2   2

     Calculation of q =    0.0000000   0.0000000   0.0000000

     GPU acceleration is ACTIVE.  1 visible GPUs per MPI rank
     GPU-aware MPI enabled

     Message from routine print_cuda_info:
     High GPU oversubscription detected. Are you sure this is what you want?

     GPU used by master process:

        Device Number: 0
        Device name: NVIDIA GH200 120GB
        Compute capability : 90
        Ratio of single to double precision performance  : 2
        Memory Clock Rate (KHz): 2619000
        Memory Bus Width (bits): 6144
        Peak Memory Bandwidth (GB/s): ******

     default                                                                    

     bravais-lattice index     =            4
     lattice parameter (alat)  =       4.7451  a.u.
     unit-cell volume          =    1105.4571 (a.u.)^3
     number of atoms/cell      =            4
     number of atomic types    =            2
     kinetic-energy cut-off    =      60.0000  Ry
     charge density cut-off    =     480.0000  Ry
     convergence threshold     =      1.0E-18
     beta                      =       0.7000
     number of iterations used =            4
     Exchange-correlation= PBESOL
                           (   1   4  10   8   0   0   0)


     celldm(1)=    4.74510  celldm(2)=    0.00000  celldm(3)=   11.94743
     celldm(4)=    0.00000  celldm(5)=    0.00000  celldm(6)=    0.00000

     crystal axes: (cart. coord. in units of alat)
               a(1) = (  1.0000  0.0000  0.0000 )  
               a(2) = ( -0.5000  0.8660  0.0000 )  
               a(3) = (  0.0000  0.0000 11.9474 )  

     reciprocal axes: (cart. coord. in units 2 pi/alat)
               b(1) = (  1.0000  0.5774 -0.0000 )  
               b(2) = (  0.0000  1.1547  0.0000 )  
               b(3) = (  0.0000 -0.0000  0.0837 )  


     Atoms inside the unit cell: 

     Cartesian axes

     site n.  atom      mass           positions (alat units)
        1  B      10.8100   tau(    1) = (   -0.25000    0.72169    5.31051  )
        2  N      14.0070   tau(    2) = (    0.25000    0.43301    5.31051  )
        3  B      10.8100   tau(    3) = (    0.25000    0.43301    6.63692  )
        4  N      14.0070   tau(    4) = (    0.75000    0.14434    6.63692  )

     Computing dynamical matrix for 
                    q = (   0.0000000   0.0000000   0.0000000 )
 
      7 Sym.Ops. (with q -> -q+G )

                                    s                        frac. trans.

      isym =  1     identity                                     

 cryst.   s( 1) = (     1          0          0      )
                  (     0          1          0      )
                  (     0          0          1      )

 cart.    s( 1) = (  1.0000000  0.0000000  0.0000000 )
                  (  0.0000000  1.0000000  0.0000000 )
                  (  0.0000000  0.0000000  1.0000000 )


      isym =  2     120 deg rotation - cryst. axis [0,0,1]       

 cryst.   s( 2) = (     0          1          0      )    f =(  0.0000000 )
                  (    -1         -1          0      )       ( -0.5000000 )
                  (     0          0          1      )       (  0.0000000 )

 cart.    s( 2) = ( -0.5000000 -0.8660254  0.0000000 )    f =(  0.2500000 )
                  (  0.8660254 -0.5000000  0.0000000 )       ( -0.4330127 )
                  (  0.0000000  0.0000000  1.0000000 )       (  0.0000000 )


      isym =  3     120 deg rotation - cryst. axis [0,0,-1]      

 cryst.   s( 3) = (    -1         -1          0      )    f =( -0.5000000 )
                  (     1          0          0      )       (  0.0000000 )
                  (     0          0          1      )       (  0.0000000 )

 cart.    s( 3) = ( -0.5000000  0.8660254  0.0000000 )    f =( -0.5000000 )
                  ( -0.8660254 -0.5000000  0.0000000 )       (  0.0000000 )
                  (  0.0000000  0.0000000  1.0000000 )       (  0.0000000 )


      isym =  4     inv. 180 deg rotation - cart. axis [1,0,0]   

 cryst.   s( 4) = (    -1          0          0      )    f =( -0.5000000 )
                  (     1          1          0      )       (  0.0000000 )
                  (     0          0          1      )       (  0.0000000 )

 cart.    s( 4) = ( -1.0000000  0.0000000  0.0000000 )    f =( -0.5000000 )
                  (  0.0000000  1.0000000  0.0000000 )       (  0.0000000 )
                  (  0.0000000  0.0000000  1.0000000 )       (  0.0000000 )


      isym =  5     inv. 180 deg rotation - cryst. axis [0,1,0]  

 cryst.   s( 5) = (     1          1          0      )    f =(  0.0000000 )
                  (     0         -1          0      )       ( -0.5000000 )
                  (     0          0          1      )       (  0.0000000 )

 cart.    s( 5) = (  0.5000000  0.8660254  0.0000000 )    f =(  0.2500000 )
                  (  0.8660254 -0.5000000  0.0000000 )       ( -0.4330127 )
                  (  0.0000000  0.0000000  1.0000000 )       (  0.0000000 )


      isym =  6     inv. 180 deg rotation - cryst. axis [1,1,0]  

 cryst.   s( 6) = (     0         -1          0      )
                  (    -1          0          0      )
                  (     0          0          1      )

 cart.    s( 6) = (  0.5000000 -0.8660254  0.0000000 )
                  ( -0.8660254 -0.5000000  0.0000000 )
                  (  0.0000000  0.0000000  1.0000000 )


     This transformation sends q -> -q+G

      isym =  7     identity                                     

 cryst.   s( 7) = (     1          0          0      )
                  (     0          1          0      )
                  (     0          0          1      )

 cart.    s( 7) = (  1.0000000  0.0000000  0.0000000 )
                  (  0.0000000  1.0000000  0.0000000 )
                  (  0.0000000  0.0000000  1.0000000 )


     G cutoff =  273.7617  (  49203 G-vectors)     FFT grid: ( 36, 36,400)
     G cutoff =  136.8808  (  17331 G-vectors)  smooth grid: ( 24, 24,288)
     number of k points=    91
                       cart. coord. in units 2pi/alat
        k(    1) = (   0.0000000   0.0000000   0.0000000), wk =   0.0022222
        k(    2) = (   0.0000000   0.0384900   0.0000000), wk =   0.0133333
        k(    3) = (   0.0000000   0.0769800   0.0000000), wk =   0.0133333
        k(    4) = (   0.0000000   0.1154701   0.0000000), wk =   0.0133333
        k(    5) = (   0.0000000   0.1539601   0.0000000), wk =   0.0133333
        k(    6) = (   0.0000000   0.1924501   0.0000000), wk =   0.0133333
        k(    7) = (   0.0000000   0.2309401   0.0000000), wk =   0.0133333
        k(    8) = (   0.0000000   0.2694301   0.0000000), wk =   0.0133333
        k(    9) = (   0.0000000   0.3079201   0.0000000), wk =   0.0133333
        k(   10) = (   0.0000000   0.3464102   0.0000000), wk =   0.0133333
        k(   11) = (   0.0000000   0.3849002   0.0000000), wk =   0.0133333
        k(   12) = (   0.0000000   0.4233902   0.0000000), wk =   0.0133333
        k(   13) = (   0.0000000   0.4618802   0.0000000), wk =   0.0133333
        k(   14) = (   0.0000000   0.5003702   0.0000000), wk =   0.0133333
        k(   15) = (   0.0000000   0.5388603   0.0000000), wk =   0.0133333
        k(   16) = (   0.0000000  -0.5773503   0.0000000), wk =   0.0066667
        k(   17) = (   0.0333333   0.0577350   0.0000000), wk =   0.0133333
        k(   18) = (   0.0333333   0.0962250   0.0000000), wk =   0.0266667
        k(   19) = (   0.0333333   0.1347151   0.0000000), wk =   0.0266667
        k(   20) = (   0.0333333   0.1732051   0.0000000), wk =   0.0266667
        k(   21) = (   0.0333333   0.2116951   0.0000000), wk =   0.0266667
        k(   22) = (   0.0333333   0.2501851   0.0000000), wk =   0.0266667
        k(   23) = (   0.0333333   0.2886751   0.0000000), wk =   0.0266667
        k(   24) = (   0.0333333   0.3271652   0.0000000), wk =   0.0266667
        k(   25) = (   0.0333333   0.3656552   0.0000000), wk =   0.0266667
        k(   26) = (   0.0333333   0.4041452   0.0000000), wk =   0.0266667
        k(   27) = (   0.0333333   0.4426352   0.0000000), wk =   0.0266667
        k(   28) = (   0.0333333   0.4811252   0.0000000), wk =   0.0266667
        k(   29) = (   0.0333333   0.5196152   0.0000000), wk =   0.0266667
        k(   30) = (   0.0333333   0.5581053   0.0000000), wk =   0.0266667
        k(   31) = (   0.0666667   0.1154701   0.0000000), wk =   0.0133333
        k(   32) = (   0.0666667   0.1539601   0.0000000), wk =   0.0266667
        k(   33) = (   0.0666667   0.1924501   0.0000000), wk =   0.0266667
        k(   34) = (   0.0666667   0.2309401   0.0000000), wk =   0.0266667
        k(   35) = (   0.0666667   0.2694301   0.0000000), wk =   0.0266667
        k(   36) = (   0.0666667   0.3079201   0.0000000), wk =   0.0266667
        k(   37) = (   0.0666667   0.3464102   0.0000000), wk =   0.0266667
        k(   38) = (   0.0666667   0.3849002   0.0000000), wk =   0.0266667
        k(   39) = (   0.0666667   0.4233902   0.0000000), wk =   0.0266667
        k(   40) = (   0.0666667   0.4618802   0.0000000), wk =   0.0266667
        k(   41) = (   0.0666667   0.5003702   0.0000000), wk =   0.0266667
        k(   42) = (   0.0666667   0.5388603   0.0000000), wk =   0.0266667
        k(   43) = (   0.0666667   0.5773503   0.0000000), wk =   0.0133333
        k(   44) = (   0.1000000   0.1732051   0.0000000), wk =   0.0133333
        k(   45) = (   0.1000000   0.2116951   0.0000000), wk =   0.0266667
        k(   46) = (   0.1000000   0.2501851   0.0000000), wk =   0.0266667
        k(   47) = (   0.1000000   0.2886751   0.0000000), wk =   0.0266667
        k(   48) = (   0.1000000   0.3271652   0.0000000), wk =   0.0266667
        k(   49) = (   0.1000000   0.3656552   0.0000000), wk =   0.0266667
        k(   50) = (   0.1000000   0.4041452   0.0000000), wk =   0.0266667
        k(   51) = (   0.1000000   0.4426352   0.0000000), wk =   0.0266667
        k(   52) = (   0.1000000   0.4811252   0.0000000), wk =   0.0266667
        k(   53) = (   0.1000000   0.5196152   0.0000000), wk =   0.0266667
        k(   54) = (   0.1000000   0.5581053   0.0000000), wk =   0.0266667
        k(   55) = (   0.1333333   0.2309401   0.0000000), wk =   0.0133333
        k(   56) = (   0.1333333   0.2694301   0.0000000), wk =   0.0266667
        k(   57) = (   0.1333333   0.3079201   0.0000000), wk =   0.0266667
        k(   58) = (   0.1333333   0.3464102   0.0000000), wk =   0.0266667
        k(   59) = (   0.1333333   0.3849002   0.0000000), wk =   0.0266667
        k(   60) = (   0.1333333   0.4233902   0.0000000), wk =   0.0266667
        k(   61) = (   0.1333333   0.4618802   0.0000000), wk =   0.0266667
        k(   62) = (   0.1333333   0.5003702   0.0000000), wk =   0.0266667
        k(   63) = (   0.1333333   0.5388603   0.0000000), wk =   0.0266667
        k(   64) = (   0.1333333   0.5773503   0.0000000), wk =   0.0133333
        k(   65) = (   0.1666667   0.2886751   0.0000000), wk =   0.0133333
        k(   66) = (   0.1666667   0.3271652   0.0000000), wk =   0.0266667
        k(   67) = (   0.1666667   0.3656552   0.0000000), wk =   0.0266667
        k(   68) = (   0.1666667   0.4041452   0.0000000), wk =   0.0266667
        k(   69) = (   0.1666667   0.4426352   0.0000000), wk =   0.0266667
        k(   70) = (   0.1666667   0.4811252   0.0000000), wk =   0.0266667
        k(   71) = (   0.1666667   0.5196152   0.0000000), wk =   0.0266667
        k(   72) = (   0.1666667   0.5581053   0.0000000), wk =   0.0266667
        k(   73) = (   0.2000000   0.3464102   0.0000000), wk =   0.0133333
        k(   74) = (   0.2000000   0.3849002   0.0000000), wk =   0.0266667
        k(   75) = (   0.2000000   0.4233902   0.0000000), wk =   0.0266667
        k(   76) = (   0.2000000   0.4618802   0.0000000), wk =   0.0266667
        k(   77) = (   0.2000000   0.5003702   0.0000000), wk =   0.0266667
        k(   78) = (   0.2000000   0.5388603   0.0000000), wk =   0.0266667
        k(   79) = (   0.2000000   0.5773503   0.0000000), wk =   0.0133333
        k(   80) = (   0.2333333   0.4041452   0.0000000), wk =   0.0133333
        k(   81) = (   0.2333333   0.4426352   0.0000000), wk =   0.0266667
        k(   82) = (   0.2333333   0.4811252   0.0000000), wk =   0.0266667
        k(   83) = (   0.2333333   0.5196152   0.0000000), wk =   0.0266667
        k(   84) = (   0.2333333   0.5581053   0.0000000), wk =   0.0266667
        k(   85) = (   0.2666667   0.4618802   0.0000000), wk =   0.0133333
        k(   86) = (   0.2666667   0.5003702   0.0000000), wk =   0.0266667
        k(   87) = (   0.2666667   0.5388603   0.0000000), wk =   0.0266667
        k(   88) = (   0.2666667   0.5773503   0.0000000), wk =   0.0133333
        k(   89) = (   0.3000000   0.5196152   0.0000000), wk =   0.0133333
        k(   90) = (   0.3000000   0.5581053   0.0000000), wk =   0.0266667
        k(   91) = (   0.3333333   0.5773503   0.0000000), wk =   0.0044444

                       cryst. coord.
        k(    1) = (   0.0000000   0.0000000   0.0000000), wk =   0.0022222
        k(    2) = (   0.0000000   0.0333333   0.0000000), wk =   0.0133333
        k(    3) = (   0.0000000   0.0666667   0.0000000), wk =   0.0133333
        k(    4) = (   0.0000000   0.1000000   0.0000000), wk =   0.0133333
        k(    5) = (   0.0000000   0.1333333   0.0000000), wk =   0.0133333
        k(    6) = (   0.0000000   0.1666667   0.0000000), wk =   0.0133333
        k(    7) = (   0.0000000   0.2000000   0.0000000), wk =   0.0133333
        k(    8) = (   0.0000000   0.2333333   0.0000000), wk =   0.0133333
        k(    9) = (   0.0000000   0.2666667   0.0000000), wk =   0.0133333
        k(   10) = (   0.0000000   0.3000000   0.0000000), wk =   0.0133333
        k(   11) = (   0.0000000   0.3333333   0.0000000), wk =   0.0133333
        k(   12) = (   0.0000000   0.3666667   0.0000000), wk =   0.0133333
        k(   13) = (   0.0000000   0.4000000   0.0000000), wk =   0.0133333
        k(   14) = (   0.0000000   0.4333333   0.0000000), wk =   0.0133333
        k(   15) = (   0.0000000   0.4666667   0.0000000), wk =   0.0133333
        k(   16) = (   0.0000000  -0.5000000   0.0000000), wk =   0.0066667
        k(   17) = (   0.0333333   0.0333333   0.0000000), wk =   0.0133333
        k(   18) = (   0.0333333   0.0666667   0.0000000), wk =   0.0266667
        k(   19) = (   0.0333333   0.1000000   0.0000000), wk =   0.0266667
        k(   20) = (   0.0333333   0.1333333   0.0000000), wk =   0.0266667
        k(   21) = (   0.0333333   0.1666667   0.0000000), wk =   0.0266667
        k(   22) = (   0.0333333   0.2000000   0.0000000), wk =   0.0266667
        k(   23) = (   0.0333333   0.2333333   0.0000000), wk =   0.0266667
        k(   24) = (   0.0333333   0.2666667   0.0000000), wk =   0.0266667
        k(   25) = (   0.0333333   0.3000000   0.0000000), wk =   0.0266667
        k(   26) = (   0.0333333   0.3333333   0.0000000), wk =   0.0266667
        k(   27) = (   0.0333333   0.3666667   0.0000000), wk =   0.0266667
        k(   28) = (   0.0333333   0.4000000   0.0000000), wk =   0.0266667
        k(   29) = (   0.0333333   0.4333333   0.0000000), wk =   0.0266667
        k(   30) = (   0.0333333   0.4666667   0.0000000), wk =   0.0266667
        k(   31) = (   0.0666667   0.0666667   0.0000000), wk =   0.0133333
        k(   32) = (   0.0666667   0.1000000   0.0000000), wk =   0.0266667
        k(   33) = (   0.0666667   0.1333333   0.0000000), wk =   0.0266667
        k(   34) = (   0.0666667   0.1666667   0.0000000), wk =   0.0266667
        k(   35) = (   0.0666667   0.2000000   0.0000000), wk =   0.0266667
        k(   36) = (   0.0666667   0.2333333   0.0000000), wk =   0.0266667
        k(   37) = (   0.0666667   0.2666667   0.0000000), wk =   0.0266667
        k(   38) = (   0.0666667   0.3000000   0.0000000), wk =   0.0266667
        k(   39) = (   0.0666667   0.3333333   0.0000000), wk =   0.0266667
        k(   40) = (   0.0666667   0.3666667   0.0000000), wk =   0.0266667
        k(   41) = (   0.0666667   0.4000000   0.0000000), wk =   0.0266667
        k(   42) = (   0.0666667   0.4333333   0.0000000), wk =   0.0266667
        k(   43) = (   0.0666667   0.4666667   0.0000000), wk =   0.0133333
        k(   44) = (   0.1000000   0.1000000   0.0000000), wk =   0.0133333
        k(   45) = (   0.1000000   0.1333333   0.0000000), wk =   0.0266667
        k(   46) = (   0.1000000   0.1666667   0.0000000), wk =   0.0266667
        k(   47) = (   0.1000000   0.2000000   0.0000000), wk =   0.0266667
        k(   48) = (   0.1000000   0.2333333   0.0000000), wk =   0.0266667
        k(   49) = (   0.1000000   0.2666667   0.0000000), wk =   0.0266667
        k(   50) = (   0.1000000   0.3000000   0.0000000), wk =   0.0266667
        k(   51) = (   0.1000000   0.3333333   0.0000000), wk =   0.0266667
        k(   52) = (   0.1000000   0.3666667   0.0000000), wk =   0.0266667
        k(   53) = (   0.1000000   0.4000000   0.0000000), wk =   0.0266667
        k(   54) = (   0.1000000   0.4333333   0.0000000), wk =   0.0266667
        k(   55) = (   0.1333333   0.1333333   0.0000000), wk =   0.0133333
        k(   56) = (   0.1333333   0.1666667   0.0000000), wk =   0.0266667
        k(   57) = (   0.1333333   0.2000000   0.0000000), wk =   0.0266667
        k(   58) = (   0.1333333   0.2333333   0.0000000), wk =   0.0266667
        k(   59) = (   0.1333333   0.2666667   0.0000000), wk =   0.0266667
        k(   60) = (   0.1333333   0.3000000   0.0000000), wk =   0.0266667
        k(   61) = (   0.1333333   0.3333333   0.0000000), wk =   0.0266667
        k(   62) = (   0.1333333   0.3666667   0.0000000), wk =   0.0266667
        k(   63) = (   0.1333333   0.4000000   0.0000000), wk =   0.0266667
        k(   64) = (   0.1333333   0.4333333   0.0000000), wk =   0.0133333
        k(   65) = (   0.1666667   0.1666667   0.0000000), wk =   0.0133333
        k(   66) = (   0.1666667   0.2000000   0.0000000), wk =   0.0266667
        k(   67) = (   0.1666667   0.2333333   0.0000000), wk =   0.0266667
        k(   68) = (   0.1666667   0.2666667   0.0000000), wk =   0.0266667
        k(   69) = (   0.1666667   0.3000000   0.0000000), wk =   0.0266667
        k(   70) = (   0.1666667   0.3333333   0.0000000), wk =   0.0266667
        k(   71) = (   0.1666667   0.3666667   0.0000000), wk =   0.0266667
        k(   72) = (   0.1666667   0.4000000   0.0000000), wk =   0.0266667
        k(   73) = (   0.2000000   0.2000000   0.0000000), wk =   0.0133333
        k(   74) = (   0.2000000   0.2333333   0.0000000), wk =   0.0266667
        k(   75) = (   0.2000000   0.2666667   0.0000000), wk =   0.0266667
        k(   76) = (   0.2000000   0.3000000   0.0000000), wk =   0.0266667
        k(   77) = (   0.2000000   0.3333333   0.0000000), wk =   0.0266667
        k(   78) = (   0.2000000   0.3666667   0.0000000), wk =   0.0266667
        k(   79) = (   0.2000000   0.4000000   0.0000000), wk =   0.0133333
        k(   80) = (   0.2333333   0.2333333   0.0000000), wk =   0.0133333
        k(   81) = (   0.2333333   0.2666667   0.0000000), wk =   0.0266667
        k(   82) = (   0.2333333   0.3000000   0.0000000), wk =   0.0266667
        k(   83) = (   0.2333333   0.3333333   0.0000000), wk =   0.0266667
        k(   84) = (   0.2333333   0.3666667   0.0000000), wk =   0.0266667
        k(   85) = (   0.2666667   0.2666667   0.0000000), wk =   0.0133333
        k(   86) = (   0.2666667   0.3000000   0.0000000), wk =   0.0266667
        k(   87) = (   0.2666667   0.3333333   0.0000000), wk =   0.0266667
        k(   88) = (   0.2666667   0.3666667   0.0000000), wk =   0.0133333
        k(   89) = (   0.3000000   0.3000000   0.0000000), wk =   0.0133333
        k(   90) = (   0.3000000   0.3333333   0.0000000), wk =   0.0266667
        k(   91) = (   0.3333333   0.3333333   0.0000000), wk =   0.0044444

     PseudoPot. # 1 for B  read from file:
     ./pseudo/b_pbesol_v1.4.uspp.F.UPF
     MD5 check sum: 369b69bef2c3aeed4453bd8b804fd6a8
     Pseudo is Ultrasoft + core correction, Zval =  3.0
     Generated by new atomic code, or converted to UPF format
     Using radial grid of  781 points,  4 beta functions with: 
                l(1) =   0
                l(2) =   0
                l(3) =   1
                l(4) =   1
     Q(r) pseudized with  8 coefficients,  rinner =    1.100   1.100   1.100


     PseudoPot. # 2 for N  read from file:
     ./pseudo/N.pbesol-theos.UPF
     MD5 check sum: 1b64827339d390a5a22afef3ff345c9d
     Pseudo is Ultrasoft + core correction, Zval =  5.0
     Generated using "atomic" code by A. Dal Corso  v.5.1
     Using radial grid of 1085 points,  4 beta functions with: 
                l(1) =   0
                l(2) =   0
                l(3) =   1
                l(4) =   1
     Q(r) pseudized with 0 coefficients 


     point group C_3v (3m)  
     there are  3 classes
     the character table:

       E     2C3   3s_v 
A_1    1.00  1.00  1.00
A_2    1.00  1.00 -1.00
E      2.00 -1.00  0.00

     the symmetry operations in each class and the name of the first element:

     E        1
                                                                 
     2C3      2    3
                                                                 
     3s_v     4    5    6
                                                                 


     Electric field:
     Dielectric constant
     Born effective charges in two ways 


     Atomic displacements:
     There are    8 irreducible representations

     Representation     1      1 modes -  To be done
     Irreps are as follows:

                     mode #   1
                     (  -0.00000   0.00000   ) 
                     (  -0.00000   0.00000   ) 
                     (  -1.00000  -0.00000   ) 
                     (  -0.00000  -0.00000   ) 
                     (  -0.00000  -0.00000   ) 
                     (  -0.00000  -0.00000   ) 
                     (  -0.00000  -0.00000   ) 
                     (  -0.00000  -0.00000   ) 
                     (  -0.00000  -0.00000   ) 
                     (  -0.00000  -0.00000   ) 
                     (  -0.00000  -0.00000   ) 
                     (  -0.00000  -0.00000   ) 

     Representation     2      1 modes -  To be done
     Irreps are as follows:

                     mode #   2
                     (  -0.00000  -0.00000   ) 
                     (  -0.00000  -0.00000   ) 
                     (  -0.00000  -0.00000   ) 
                     (  -0.00000  -0.00000   ) 
                     (  -0.00000  -0.00000   ) 
                     (  -0.00000  -0.00000   ) 
                     (  -0.00000  -0.00000   ) 
                     (  -0.00000  -0.00000   ) 
                     (  -0.00000  -0.00000   ) 
                     (  -0.00000  -0.00000   ) 
                     (  -0.00000  -0.00000   ) 
                     (  -1.00000  -0.00000   ) 

     Representation     3      1 modes -  To be done
     Irreps are as follows:

                     mode #   3
                     (  -0.00000   0.00000   ) 
                     (  -0.00000   0.00000   ) 
                     (  -0.00000   0.00000   ) 
                     (  -0.00000   0.00000   ) 
                     (  -0.00000   0.00000   ) 
                     (  -0.00000   0.00000   ) 
                     (  -0.00000   0.00000   ) 
                     (  -0.00000   0.00000   ) 
                     (  -1.00000  -0.00000   ) 
                     (  -0.00000  -0.00000   ) 
                     (  -0.00000  -0.00000   ) 
                     (  -0.00000  -0.00000   ) 

     Representation     4      1 modes -  To be done
     Irreps are as follows:

                     mode #   4
                     (  -0.00000   0.00000   ) 
                     (  -0.00000   0.00000   ) 
                     (  -0.00000   0.00000   ) 
                     (  -0.00000   0.00000   ) 
                     (  -0.00000   0.00000   ) 
                     (  -1.00000  -0.00000   ) 
                     (  -0.00000  -0.00000   ) 
                     (  -0.00000  -0.00000   ) 
                     (  -0.00000  -0.00000   ) 
                     (  -0.00000  -0.00000   ) 
                     (  -0.00000  -0.00000   ) 
                     (  -0.00000  -0.00000   ) 

     Representation     5      2 modes -  To be done
     Irreps are as follows:

           mode #   5                           mode #   6
           (  -0.00000   0.00000   )            (   0.00000  -0.00000   ) 
           (  -0.00000   0.00000   )            (   0.00000  -0.00000   ) 
           (  -0.00000   0.00000   )            (   0.00000  -0.00000   ) 
           (  -0.00000   0.00000   )            (   0.00000  -0.00000   ) 
           (  -0.00000   0.00000   )            (   0.00000  -0.00000   ) 
           (  -0.00000   0.00000   )            (   0.00000  -0.00000   ) 
           (  -1.00000  -0.00000   )            (  -0.00073  -0.00000   ) 
           (   0.00073   0.00000   )            (  -1.00000  -0.00000   ) 
           (  -0.00000   0.00000   )            (   0.00000  -0.00000   ) 
           (  -0.00000   0.00000   )            (   0.00000  -0.00000   ) 
           (  -0.00000   0.00000   )            (   0.00000  -0.00000   ) 
           (  -0.00000   0.00000   )            (   0.00000  -0.00000   ) 

     Representation     6      2 modes -  To be done
     Irreps are as follows:

           mode #   7                           mode #   8
           (  -0.00000   0.00000   )            (  -0.00000   0.00000   ) 
           (  -0.00000   0.00000   )            (  -0.00000   0.00000   ) 
           (  -0.00000   0.00000   )            (  -0.00000   0.00000   ) 
           (  -0.00000   0.00000   )            (  -0.00000   0.00000   ) 
           (  -0.00000   0.00000   )            (  -0.00000   0.00000   ) 
           (  -0.00000   0.00000   )            (  -0.00000   0.00000   ) 
           (  -0.00000   0.00000   )            (  -0.00000   0.00000   ) 
           (  -0.00000   0.00000   )            (  -0.00000   0.00000   ) 
           (  -0.00000   0.00000   )            (  -0.00000   0.00000   ) 
           (  -1.00000  -0.00000   )            (  -0.00155  -0.00000   ) 
           (  -0.00155  -0.00000   )            (   1.00000  -0.00000   ) 
           (  -0.00000   0.00000   )            (  -0.00000  -0.00000   ) 

     Representation     7      2 modes -  To be done
     Irreps are as follows:

           mode #   9                           mode #  10
           (  -0.00000   0.00000   )            (  -0.00000   0.00000   ) 
           (  -0.00000   0.00000   )            (  -0.00000   0.00000   ) 
           (  -0.00000   0.00000   )            (  -0.00000   0.00000   ) 
           (  -0.00084  -0.00000   )            (  -1.00000  -0.00000   ) 
           (  -1.00000  -0.00000   )            (   0.00084   0.00000   ) 
           (  -0.00000  -0.00000   )            (  -0.00000   0.00000   ) 
           (  -0.00000  -0.00000   )            (  -0.00000   0.00000   ) 
           (  -0.00000  -0.00000   )            (  -0.00000   0.00000   ) 
           (  -0.00000  -0.00000   )            (  -0.00000   0.00000   ) 
           (  -0.00000  -0.00000   )            (  -0.00000   0.00000   ) 
           (  -0.00000  -0.00000   )            (  -0.00000   0.00000   ) 
           (  -0.00000  -0.00000   )            (  -0.00000   0.00000   ) 

     Representation     8      2 modes -  To be done
     Irreps are as follows:

           mode #  11                           mode #  12
           (  -0.00000   0.00000   )            (  -1.00000  -0.00000   ) 
           (  -1.00000  -0.00000   )            (  -0.00000  -0.00000   ) 
           (  -0.00000  -0.00000   )            (  -0.00000  -0.00000   ) 
           (  -0.00000  -0.00000   )            (  -0.00000  -0.00000   ) 
           (  -0.00000  -0.00000   )            (  -0.00000  -0.00000   ) 
           (  -0.00000  -0.00000   )            (  -0.00000  -0.00000   ) 
           (  -0.00000  -0.00000   )            (  -0.00000  -0.00000   ) 
           (  -0.00000  -0.00000   )            (  -0.00000  -0.00000   ) 
           (  -0.00000  -0.00000   )            (  -0.00000  -0.00000   ) 
           (  -0.00000  -0.00000   )            (  -0.00000  -0.00000   ) 
           (  -0.00000  -0.00000   )            (  -0.00000  -0.00000   ) 
           (  -0.00000  -0.00000   )            (  -0.00000  -0.00000   ) 



     Alpha used in Ewald sum =   2.8000

     Calculating the D2 contribution to the dynamical matrix.
     D2 energy =       -0.03013209 Ry
     Done.


     negative rho (up, down):  3.632E-05 0.000E+00
     PHONON       :     37.10s CPU     10.91s WALL


     Electric Fields Calculation

      iter #   1 total cpu time :   103.9 secs   av.it.:   7.2
      thresh= 1.000E-02 alpha_mix =  0.700 |ddv_scf|^2 =  1.726E+06

      iter #   2 total cpu time :   195.6 secs   av.it.:  20.7
      thresh= 1.000E-02 alpha_mix =  0.700 |ddv_scf|^2 =  7.680E+16

      iter #   3 total cpu time :   290.3 secs   av.it.:  24.6
      thresh= 1.000E-02 alpha_mix =  0.700 |ddv_scf|^2 =  1.869E+20

      iter #   4 total cpu time :   390.0 secs   av.it.:  29.7
      thresh= 1.000E-02 alpha_mix =  0.700 |ddv_scf|^2 =  2.426E+24
